 Entering Gaussian System, Link 0=/home/qc/Bg16_b01_x86_64_avx2/g16/g16
 AtFile(1): /home/brent/semp/opt_test/params.dat
             ****
             H
            F0ss=0.5032815131
            ZetaOverlap=1.3463838844
            U=-0.4742261814
            Beta=-0.4668995543
            CoreKO=0.7758606914
            GCore=-0.0119162797,0.8775921519,3.3643669281
             ****
             C
            F0ss=0.4184175168
            F0sp=0.3620114552
            F0pp=0.5405148012
            F2pp=0.6778458555
            G1sp=0.1211343170
            ZetaOverlap=1.8286852822,1.5061691258
            U=-1.5480887492,-1.6936981163
            Beta=-0.1456835353,-0.3790279656
            CoreKO=1.2740393308
            GCore=0.0105311240,0.6127683039,2.6057930524
             ****
            
 Initial command:
 /home/qc/Bg16_b01_x86_64_avx2/g16/l1.exe "//scratch/brent/opt_2021-09-30_12_28_02/Gau-23258.inp" -scrdir="//scratch/brent/opt_2021-09-30_12_28_02/"
 Entering Link 1 = /home/qc/Bg16_b01_x86_64_avx2/g16/l1.exe PID=     23259.
  
 Copyright (c) 1988-2017, Gaussian, Inc.  All Rights Reserved.
  
 This is part of the Gaussian(R) 16 program.  It is based on
 the Gaussian(R) 09 system (copyright 2009, Gaussian, Inc.),
 the Gaussian(R) 03 system (copyright 2003, Gaussian, Inc.),
 the Gaussian(R) 98 system (copyright 1998, Gaussian, Inc.),
 the Gaussian(R) 94 system (copyright 1995, Gaussian, Inc.),
 the Gaussian 92(TM) system (copyright 1992, Gaussian, Inc.),
 the Gaussian 90(TM) system (copyright 1990, Gaussian, Inc.),
 the Gaussian 88(TM) system (copyright 1988, Gaussian, Inc.),
 the Gaussian 86(TM) system (copyright 1986, Carnegie Mellon
 University), and the Gaussian 82(TM) system (copyright 1983,
 Carnegie Mellon University). Gaussian is a federally registered
 trademark of Gaussian, Inc.
  
 This software contains proprietary and confidential information,
 including trade secrets, belonging to Gaussian, Inc.
  
 This software is provided under written license and may be
 used, copied, transmitted, or stored only in accord with that
 written license.
  
 The following legend is applicable only to US Government
 contracts under FAR:
  
                    RESTRICTED RIGHTS LEGEND
  
 Use, reproduction and disclosure by the US Government is
 subject to restrictions as set forth in subparagraphs (a)
 and (c) of the Commercial Computer Software - Restricted
 Rights clause in FAR 52.227-19.
  
 Gaussian, Inc.
 340 Quinnipiac St., Bldg. 40, Wallingford CT 06492
  
  
 ---------------------------------------------------------------
 Warning -- This program may not be used in any manner that
 competes with the business of Gaussian, Inc. or will provide
 assistance to any competitor of Gaussian, Inc.  The licensee
 of this program is prohibited from giving any competitor of
 Gaussian, Inc. access to this program.  By using this program,
 the user acknowledges that Gaussian, Inc. is engaged in the
 business of creating and licensing software in the field of
 computational chemistry and represents and warrants to the
 licensee that it is not a competitor of Gaussian, Inc. and that
 it will not use this program in any manner prohibited above.
 ---------------------------------------------------------------
  

 Cite this work as:
 Gaussian 16, Revision B.01,
 M. J. Frisch, G. W. Trucks, H. B. Schlegel, G. E. Scuseria, 
 M. A. Robb, J. R. Cheeseman, G. Scalmani, V. Barone, 
 G. A. Petersson, H. Nakatsuji, X. Li, M. Caricato, A. V. Marenich, 
 J. Bloino, B. G. Janesko, R. Gomperts, B. Mennucci, H. P. Hratchian, 
 J. V. Ortiz, A. F. Izmaylov, J. L. Sonnenberg, D. Williams-Young, 
 F. Ding, F. Lipparini, F. Egidi, J. Goings, B. Peng, A. Petrone, 
 T. Henderson, D. Ranasinghe, V. G. Zakrzewski, J. Gao, N. Rega, 
 G. Zheng, W. Liang, M. Hada, M. Ehara, K. Toyota, R. Fukuda, 
 J. Hasegawa, M. Ishida, T. Nakajima, Y. Honda, O. Kitao, H. Nakai, 
 T. Vreven, K. Throssell, J. A. Montgomery, Jr., J. E. Peralta, 
 F. Ogliaro, M. J. Bearpark, J. J. Heyd, E. N. Brothers, K. N. Kudin, 
 V. N. Staroverov, T. A. Keith, R. Kobayashi, J. Normand, 
 K. Raghavachari, A. P. Rendell, J. C. Burant, S. S. Iyengar, 
 J. Tomasi, M. Cossi, J. M. Millam, M. Klene, C. Adamo, R. Cammi, 
 J. W. Ochterski, R. L. Martin, K. Morokuma, O. Farkas, 
 J. B. Foresman, and D. J. Fox, Gaussian, Inc., Wallingford CT, 2016.
 
 ******************************************
 Gaussian 16:  ES64L-G16RevB.01 20-Dec-2017
                30-Sep-2021 
 ******************************************
 %mem=1000mb
 %nprocs=1
 Will use up to    1 processors via shared memory.
 ----------------------------------
 #P PM6=(print,zero,input) opt freq
 ----------------------------------
 1/18=20,19=15,26=1,38=1/1,3;
 2/9=110,12=2,17=6,18=5,40=1/2;
 3/5=2,25=1,41=3900000,71=1,135=100,136=201/1,2,3;
 4/35=1/1;
 5/5=2,35=1,38=5/2;
 6/7=2,8=2,9=2,10=2,28=1/1;
 7//1,2,3,16;
 1/18=20,19=15,26=1/3(2);
 2/9=110/2;
 99//99;
 2/9=110/2;
 3/5=2,25=1,41=3900000,71=1,135=20,136=201/1,2,3;
 4/5=5,16=3,35=1/1;
 5/5=2,35=1,38=5/2;
 7//1,2,3,16;
 1/18=20,19=15,26=1/3(-5);
 2/9=110/2;
 6/7=2,8=2,9=2,10=2,19=2,28=1/1;
 99/9=1/99;
 Leave Link    1 at Thu Sep 30 12:28:04 2021, MaxMem=   131072000 cpu:               0.0 elap:               0.2
 (Enter /home/qc/Bg16_b01_x86_64_avx2/g16/l101.exe)
 ---------
 the title
 ---------
 Symbolic Z-matrix:
 Charge = -1 Multiplicity = 1
 C
 C                    1    GCC
 C                    2    GCC      1     108. 
 C                    3    GCC      2     108.     1     0.       0
 C                    4    GCC      3     108.     2     0.       0
 H                    5    CH       4     126.     3    -180.     0
 H                    4    CH       3     126.     2    -180.     0
 H                    3    CH       2     126.     1    -180.     0
 H                    2    CH       1     126.     5    -180.     0
 H                    1    CH       2     126.     3     180.     0
       Variables:
  GCC                   1.37006                  
  CH                    1.1021                   
 
 ITRead=  0  0  0  0  0  0  0  0  0  0
 MicOpt= -1 -1 -1 -1 -1 -1 -1 -1 -1 -1
 NAtoms=     10 NQM=       10 NQMF=       0 NMMI=      0 NMMIF=      0
                NMic=       0 NMicF=      0.
                    Isotopes and Nuclear Properties:
 (Nuclear quadrupole moments (NQMom) in fm**2, nuclear magnetic moments (NMagM)
  in nuclear magnetons)

  Atom         1           2           3           4           5           6           7           8           9          10
 IAtWgt=          12          12          12          12          12           1           1           1           1           1
 AtmWgt=  12.0000000  12.0000000  12.0000000  12.0000000  12.0000000   1.0078250   1.0078250   1.0078250   1.0078250   1.0078250
 NucSpn=           0           0           0           0           0           1           1           1           1           1
 AtZEff=   0.0000000   0.0000000   0.0000000   0.0000000   0.0000000   0.0000000   0.0000000   0.0000000   0.0000000   0.0000000
 NQMom=    0.0000000   0.0000000   0.0000000   0.0000000   0.0000000   0.0000000   0.0000000   0.0000000   0.0000000   0.0000000
 NMagM=    0.0000000   0.0000000   0.0000000   0.0000000   0.0000000   2.7928460   2.7928460   2.7928460   2.7928460   2.7928460
 AtZNuc=   6.0000000   6.0000000   6.0000000   6.0000000   6.0000000   1.0000000   1.0000000   1.0000000   1.0000000   1.0000000
 Leave Link  101 at Thu Sep 30 12:28:04 2021, MaxMem=   131072000 cpu:               0.1 elap:               0.1
 (Enter /home/qc/Bg16_b01_x86_64_avx2/g16/l103.exe)

 GradGradGradGradGradGradGradGradGradGradGradGradGradGradGradGradGradGrad
 Berny optimization.
 Initialization pass.
                           ----------------------------
                           !    Initial Parameters    !
                           ! (Angstroms and Degrees)  !
 --------------------------                            --------------------------
 ! Name  Definition              Value          Derivative Info.                !
 --------------------------------------------------------------------------------
 ! R1    R(1,2)                  1.3701         estimate D2E/DX2                !
 ! R2    R(1,5)                  1.3701         estimate D2E/DX2                !
 ! R3    R(1,10)                 1.1021         estimate D2E/DX2                !
 ! R4    R(2,3)                  1.3701         estimate D2E/DX2                !
 ! R5    R(2,9)                  1.1021         estimate D2E/DX2                !
 ! R6    R(3,4)                  1.3701         estimate D2E/DX2                !
 ! R7    R(3,8)                  1.1021         estimate D2E/DX2                !
 ! R8    R(4,5)                  1.3701         estimate D2E/DX2                !
 ! R9    R(4,7)                  1.1021         estimate D2E/DX2                !
 ! R10   R(5,6)                  1.1021         estimate D2E/DX2                !
 ! A1    A(2,1,5)              108.0            estimate D2E/DX2                !
 ! A2    A(2,1,10)             126.0            estimate D2E/DX2                !
 ! A3    A(5,1,10)             126.0            estimate D2E/DX2                !
 ! A4    A(1,2,3)              108.0            estimate D2E/DX2                !
 ! A5    A(1,2,9)              126.0            estimate D2E/DX2                !
 ! A6    A(3,2,9)              126.0            estimate D2E/DX2                !
 ! A7    A(2,3,4)              108.0            estimate D2E/DX2                !
 ! A8    A(2,3,8)              126.0            estimate D2E/DX2                !
 ! A9    A(4,3,8)              126.0            estimate D2E/DX2                !
 ! A10   A(3,4,5)              108.0            estimate D2E/DX2                !
 ! A11   A(3,4,7)              126.0            estimate D2E/DX2                !
 ! A12   A(5,4,7)              126.0            estimate D2E/DX2                !
 ! A13   A(1,5,4)              108.0            estimate D2E/DX2                !
 ! A14   A(1,5,6)              126.0            estimate D2E/DX2                !
 ! A15   A(4,5,6)              126.0            estimate D2E/DX2                !
 ! D1    D(5,1,2,3)              0.0            estimate D2E/DX2                !
 ! D2    D(5,1,2,9)            180.0            estimate D2E/DX2                !
 ! D3    D(10,1,2,3)           180.0            estimate D2E/DX2                !
 ! D4    D(10,1,2,9)             0.0            estimate D2E/DX2                !
 ! D5    D(2,1,5,4)              0.0            estimate D2E/DX2                !
 ! D6    D(2,1,5,6)            180.0            estimate D2E/DX2                !
 ! D7    D(10,1,5,4)           180.0            estimate D2E/DX2                !
 ! D8    D(10,1,5,6)             0.0            estimate D2E/DX2                !
 ! D9    D(1,2,3,4)              0.0            estimate D2E/DX2                !
 ! D10   D(1,2,3,8)            180.0            estimate D2E/DX2                !
 ! D11   D(9,2,3,4)            180.0            estimate D2E/DX2                !
 ! D12   D(9,2,3,8)              0.0            estimate D2E/DX2                !
 ! D13   D(2,3,4,5)              0.0            estimate D2E/DX2                !
 ! D14   D(2,3,4,7)            180.0            estimate D2E/DX2                !
 ! D15   D(8,3,4,5)            180.0            estimate D2E/DX2                !
 ! D16   D(8,3,4,7)              0.0            estimate D2E/DX2                !
 ! D17   D(3,4,5,1)              0.0            estimate D2E/DX2                !
 ! D18   D(3,4,5,6)            180.0            estimate D2E/DX2                !
 ! D19   D(7,4,5,1)            180.0            estimate D2E/DX2                !
 ! D20   D(7,4,5,6)              0.0            estimate D2E/DX2                !
 --------------------------------------------------------------------------------
 Trust Radius=3.00D-01 FncErr=1.00D-07 GrdErr=1.00D-07 EigMax=2.50D+02 EigMin=1.00D-04
 Number of steps in this run=     55 maximum allowed number of steps=    100.
 GradGradGradGradGradGradGradGradGradGradGradGradGradGradGradGradGradGrad

 Leave Link  103 at Thu Sep 30 12:28:05 2021, MaxMem=   131072000 cpu:               0.0 elap:               0.2
 (Enter /home/qc/Bg16_b01_x86_64_avx2/g16/l202.exe)
                          Input orientation:                          
 ---------------------------------------------------------------------
 Center     Atomic      Atomic             Coordinates (Angstroms)
 Number     Number       Type             X           Y           Z
 ---------------------------------------------------------------------
      1          6           0        0.000000    0.000000    0.000000
      2          6           0        0.000000    0.000000    1.370064
      3          6           0        1.303009    0.000000    1.793437
      4          6           0        2.108312    0.000000    0.685032
      5          6           0        1.303009    0.000000   -0.423373
      6          1           0        1.643577    0.000000   -1.471536
      7          1           0        3.210416    0.000000    0.685032
      8          1           0        1.643577    0.000000    2.841600
      9          1           0       -0.891621    0.000000    2.017865
     10          1           0       -0.891621    0.000000   -0.647800
 ---------------------------------------------------------------------
                    Distance matrix (angstroms):
                    1          2          3          4          5
     1  C    0.000000
     2  C    1.370064   0.000000
     3  C    2.216811   1.370064   0.000000
     4  C    2.216811   2.216811   1.370064   0.000000
     5  C    1.370064   2.216811   2.216811   1.370064   0.000000
     6  H    2.206075   3.282688   3.282688   2.206075   1.102104
     7  H    3.282688   3.282688   2.206075   1.102104   2.206075
     8  H    3.282688   2.206075   1.102104   2.206075   3.282688
     9  H    2.206075   1.102104   2.206075   3.282688   3.282688
    10  H    1.102104   2.206075   3.282688   3.282688   2.206075
                    6          7          8          9         10
     6  H    0.000000
     7  H    2.665665   0.000000
     8  H    4.313137   2.665665   0.000000
     9  H    4.313137   4.313137   2.665665   0.000000
    10  H    2.665665   4.313137   4.313137   2.665665   0.000000
 Stoichiometry    C5H5(1-)
 Framework group  D5H[5C2(.CH)]
 Deg. of freedom     2
 Full point group                 D5H     NOp  20
 Largest Abelian subgroup         C2V     NOp   4
 Largest concise Abelian subgroup C2      NOp   2
                         Standard orientation:                         
 ---------------------------------------------------------------------
 Center     Atomic      Atomic             Coordinates (Angstroms)
 Number     Number       Type             X           Y           Z
 ---------------------------------------------------------------------
      1          6           0        0.000000    1.165446    0.000000
      2          6           0        1.108405    0.360143    0.000000
      3          6           0        0.685032   -0.942866    0.000000
      4          6           0       -0.685032   -0.942866    0.000000
      5          6           0       -1.108405    0.360143    0.000000
      6          1           0       -2.156568    0.700712    0.000000
      7          1           0       -1.332833   -1.834487    0.000000
      8          1           0        1.332833   -1.834487    0.000000
      9          1           0        2.156568    0.700712    0.000000
     10          1           0        0.000000    2.267550    0.000000
 ---------------------------------------------------------------------
 Rotational constants (GHZ):           9.4106294           9.4106294           4.7053147
 Leave Link  202 at Thu Sep 30 12:28:06 2021, MaxMem=   131072000 cpu:               0.0 elap:               0.1
 (Enter /home/qc/Bg16_b01_x86_64_avx2/g16/l301.exe)

 Semi-emprical parameters in input format:
 Method=40 CoreType=2 PeptideFC=0.0000000000 RIJScale=0.0000000000 PM6R6=0.0000124488
 PM6R12=0.0000007621 ExpSw=0 CofSw=0.0000000000 R0Sw=0.0000000000 XabDefault=10.0000000000
 AabDefault=1.1536063198 PM7OH3=0.0000000000 PM7OH4=0.0000000000 PM6HCC=3674.9303600697
 ****
 H       
 PQN=1,0,0,0 NValence=1 F0ss=0.5032815131 F0sp=0.0000000000 F0pp=0.0000000000
 F0sd=0.0000000000 F0pd=0.0000000000 F0dd=0.0000000000 F2pp=0.0000000000 F2pd=0.0000000000
 F2dd=0.0000000000 F4dd=0.0000000000 G1sp=0.0000000000 G1pd=0.0000000000 G2sd=0.0000000000
 G3pd=0.0000000000 Rsppd=0.0000000000 Rsdpp=0.0000000000 Rsddd=0.0000000000
 ZetaOverlap=1.3463838844,0.0000000000,0.0000000000,0.0000000000
 Zeta1C=0.0000000000,0.0000000000,0.0000000000,0.0000000000
 U=-0.4742261814,0.0000000000,0.0000000000,0.0000000000
 Beta=-0.4668995543,0.0000000000,0.0000000000,0.0000000000 DDN=0,0,0.0000000000
 DDN=0,1,0.0000000000 DDN=1,1,0.0000000000 DDN=0,2,0.0000000000 DDN=1,2,0.0000000000
 DDN=2,2,0.0000000000 DDN=0,3,0.0000000000 DDN=1,3,0.0000000000 DDN=2,3,0.0000000000
 DDN=3,3,0.0000000000 CoreKO=0.7758606914 KON=0,0,0,0.9934797663 KON=1,0,0,0.0000000000
 KON=2,0,0,0.0000000000 KON=3,0,0,0.0000000000 KON=0,0,1,0.0000000000 KON=1,0,1,0.0000000000
 KON=2,0,1,0.0000000000 KON=3,0,1,0.0000000000 KON=0,1,1,0.0000000000 KON=1,1,1,0.0000000000
 KON=2,1,1,0.0000000000 KON=3,1,1,0.0000000000 KON=0,0,2,0.0000000000 KON=1,0,2,0.0000000000
 KON=2,0,2,0.0000000000 KON=3,0,2,0.0000000000 KON=0,1,2,0.0000000000 KON=1,1,2,0.0000000000
 KON=2,1,2,0.0000000000 KON=3,1,2,0.0000000000 KON=0,2,2,0.0000000000 KON=1,2,2,0.0000000000
 KON=2,2,2,0.0000000000 KON=3,2,2,0.0000000000 KON=0,0,3,0.0000000000 KON=1,0,3,0.0000000000
 KON=2,0,3,0.0000000000 KON=3,0,3,0.0000000000 KON=0,1,3,0.0000000000 KON=1,1,3,0.0000000000
 KON=2,1,3,0.0000000000 KON=3,1,3,0.0000000000 KON=0,2,3,0.0000000000 KON=1,2,3,0.0000000000
 KON=2,2,3,0.0000000000 KON=3,2,3,0.0000000000 KON=0,3,3,0.0000000000 KON=1,3,3,0.0000000000
 KON=2,3,3,0.0000000000 KON=3,3,3,0.0000000000 EISol=-0.4742261814 EHeat=0.0830298221
 Alpha=0.0000000000 DipHyp=0.0000000000
 GCore=-0.0119162797,0.8775921519,3.3643669281 DCore=1,3,1.8737858116,2.2435870000,0.0000000000,0.0000000000,0.0000000000
 ****
 C       
 PQN=2,2,0,0 NValence=4 F0ss=0.4184175168 F0sp=0.3620114552 F0pp=0.5405148012
 F0sd=0.0000000000 F0pd=0.0000000000 F0dd=0.0000000000 F2pp=0.6778458555 F2pd=0.0000000000
 F2dd=0.0000000000 F4dd=0.0000000000 G1sp=0.1211343170 G1pd=0.0000000000 G2sd=0.0000000000
 G3pd=0.0000000000 Rsppd=0.0000000000 Rsdpp=0.0000000000 Rsddd=0.0000000000
 ZetaOverlap=1.8286852822,1.5061691258,0.0000000000,0.0000000000
 Zeta1C=0.0000000000,0.0000000000,0.0000000000,0.0000000000
 U=-1.5480887492,-1.6936981163,0.0000000000,0.0000000000
 Beta=-0.1456835353,-0.3790279656,0.0000000000,0.0000000000 DDN=0,0,0.0000000000
 DDN=0,1,0.8455316356 DDN=1,1,0.8131522884 DDN=0,2,0.0000000000 DDN=1,2,0.0000000000
 DDN=2,2,0.0000000000 DDN=0,3,0.0000000000 DDN=1,3,0.0000000000 DDN=2,3,0.0000000000
 DDN=3,3,0.0000000000 CoreKO=1.2740393308 KON=0,0,0,1.1949786515 KON=1,0,0,0.0000000000
 KON=2,0,0,0.0000000000 KON=3,0,0,0.0000000000 KON=0,0,1,0.0000000000 KON=1,0,1,1.1713187703
 KON=2,0,1,0.0000000000 KON=3,0,1,0.0000000000 KON=0,1,1,1.1949786515 KON=1,1,1,0.0000000000
 KON=2,1,1,0.5173707381 KON=3,1,1,0.0000000000 KON=0,0,2,0.0000000000 KON=1,0,2,0.0000000000
 KON=2,0,2,0.0000000000 KON=3,0,2,0.0000000000 KON=0,1,2,0.0000000000 KON=1,1,2,0.0000000000
 KON=2,1,2,0.0000000000 KON=3,1,2,0.0000000000 KON=0,2,2,0.0000000000 KON=1,2,2,0.0000000000
 KON=2,2,2,0.0000000000 KON=3,2,2,0.0000000000 KON=0,0,3,0.0000000000 KON=1,0,3,0.0000000000
 KON=2,0,3,0.0000000000 KON=3,0,3,0.0000000000 KON=0,1,3,0.0000000000 KON=1,1,3,0.0000000000
 KON=2,1,3,0.0000000000 KON=3,1,3,0.0000000000 KON=0,2,3,0.0000000000 KON=1,2,3,0.0000000000
 KON=2,2,3,0.0000000000 KON=3,2,3,0.0000000000 KON=0,3,3,0.0000000000 KON=1,3,3,0.0000000000
 KON=2,3,3,0.0000000000 KON=3,3,3,0.0000000000 EISol=-4.2929209746 EHeat=0.2723305496
 Alpha=0.0000000000 DipHyp=1.6909658931
 GCore=0.0105311240,0.6127683039,2.6057930524 DCore=1,4,0.2878149936,0.2165060000,0.0000000000,0.0000000000,0.0000000000
 DCore=2,3,1.6101301456,3.2139710000,0.0000000000,0.0000000000,0.0000000000
 DCore=3,3,1.7155258415,16.1800020000,0.0000000000,0.0000000000,0.0000000000
 DCore=4,3,2.2293611467,25.0358790000,0.0000000000,0.0000000000,0.0000000000
 DCore=5,3,1.5446719829,1.8748590000,0.0000000000,0.0000000000,0.0000000000
 DCore=6,5,1.3831173555,0.8135100000,3.1644797213,9.2800000000,0.0000000000
 ****
 
 Standard basis: VSTO-6G (5D, 7F)
 Ernie: Thresh=  0.10000D-02 Tol=  0.10000D-05 Strict=F.
  NNHCO=     0 NNPyr=     0 NCTC=     0               EPep=         0.000000000
    EC=        61.466452221  ECS=         1.998926059   EG=         0.751456075
   EHC=         0.000366490  EAt=       -23.835735780  AtH=         1.776801858
 EPDDG=         0.000000000  ECC=        64.217200844 EAtT=        25.612537638
 There are    11 symmetry adapted cartesian basis functions of A1  symmetry.
 There are     2 symmetry adapted cartesian basis functions of A2  symmetry.
 There are     9 symmetry adapted cartesian basis functions of B1  symmetry.
 There are     3 symmetry adapted cartesian basis functions of B2  symmetry.
 There are    11 symmetry adapted basis functions of A1  symmetry.
 There are     2 symmetry adapted basis functions of A2  symmetry.
 There are     9 symmetry adapted basis functions of B1  symmetry.
 There are     3 symmetry adapted basis functions of B2  symmetry.
    25 basis functions,   150 primitive gaussians,    25 cartesian basis functions
    13 alpha electrons       13 beta electrons
       nuclear repulsion energy        89.8297384827 Hartrees.
 IExCor=    0 DFT=F Ex=HF Corr=None ExCW=0 ScaHFX=  1.000000
 ScaDFX=  1.000000  1.000000  1.000000  1.000000 ScalE2=  1.000000  1.000000
 IRadAn=      5 IRanWt=     -1 IRanGd=            0 ICorTp=0 IEmpDi=  4
 Integral buffers will be    131072 words long.
 Regular integral format.
 Two-electron integral symmetry is turned off.
 Leave Link  301 at Thu Sep 30 12:28:06 2021, MaxMem=   131072000 cpu:               0.1 elap:               0.1
 (Enter /home/qc/Bg16_b01_x86_64_avx2/g16/l302.exe)
 Do NDO integrals.
 NPDir=0 NMtPBC=     1 NCelOv=     1 NCel=       1 NClECP=     1 NCelD=      1
         NCelK=      1 NCelE2=     1 NClLst=     1 CellRange=     0.0.
 One-electron integrals computed using PRISM.
 NBasis=    25 RedAO= T EigKep=  1.00D+00  NBF=    11     2     9     3
 NBsUse=    25 1.00D-06 EigRej= -1.00D+00 NBFU=    11     2     9     3
 Leave Link  302 at Thu Sep 30 12:28:07 2021, MaxMem=   131072000 cpu:               0.1 elap:               0.1
 (Enter /home/qc/Bg16_b01_x86_64_avx2/g16/l303.exe)
 DipDrv:  MaxL=1.
 Leave Link  303 at Thu Sep 30 12:28:08 2021, MaxMem=   131072000 cpu:               0.0 elap:               0.1
 (Enter /home/qc/Bg16_b01_x86_64_avx2/g16/l401.exe)
 Simple Huckel Guess.
 JPrj=0 DoOrth=F DoCkMO=F.
 Initial guess orbital symmetries:
       Occupied  (A1') (E1') (E1') (A1') (E2') (E2') (A2") (E1')
                 (E1') (E2') (E2') (E1") (E1")
       Virtual   (E2") (E2") (E1') (E1') (A2') (A1') (E2') (E2')
                 (E1') (E1') (E2') (E2')
 The electronic state of the initial guess is 1-A1'.
 Leave Link  401 at Thu Sep 30 12:28:08 2021, MaxMem=   131072000 cpu:               0.1 elap:               0.1
 (Enter /home/qc/Bg16_b01_x86_64_avx2/g16/l502.exe)
 Keep J ints in memory in canonical form, NReq=860810.
 FoFCou: FMM=F IPFlag=           0 FMFlag=           0 FMFlg1=           0
         NFxFlg=           0 DoJE=F BraDBF=F KetDBF=F FulRan=T
         wScrn=  0.000000 ICntrl=       600 IOpCl=  2 I1Cent=           0 NGrid=           0
         NMat0=    1 NMatS0=     55 NMatT0=    0 NMatD0=    1 NMtDS0=    0 NMtDT0=    0
 Symmetry not used in FoFCou.
 Two-electron integral symmetry not used.
 Closed shell SCF:
 Using DIIS extrapolation, IDIIS=  1040.
 Overlap will be assumed to be unity.
 NGot=   131072000 LenX=   131009591 LenY=   131008525
 Requested convergence on RMS density matrix=1.00D-08 within 128 cycles.
 Requested convergence on MAX density matrix=1.00D-06.
 Requested convergence on             energy=1.00D-06.
 No special actions if energy rises.

 Cycle   1  Pass 1  IDiag  1:
 E=-0.785535692445904E-01
 DIIS: error= 1.25D-02 at cycle   1 NSaved=   1.
 NSaved= 1 IEnMin= 1 EnMin=-0.785535692445904E-01 IErMin= 1 ErrMin= 1.25D-02
 ErrMax= 1.25D-02  0.00D+00 EMaxC= 1.00D-01 BMatC= 1.70D-02 BMatP= 1.70D-02
 IDIUse=3 WtCom= 8.75D-01 WtEn= 1.25D-01
 Coeff-Com:  0.100D+01
 Coeff-En:   0.100D+01
 Coeff:      0.100D+01
 GapD=    2.000 DampG=2.000 DampE=0.500 DampFc=1.0000 IDamp=-1.
 RMSDP=8.48D-03 MaxDP=2.66D-02              OVMax= 0.00D+00

 Cycle   2  Pass 1  IDiag  3:
 E=-0.126067231626251     Delta-E=       -0.047513662382 Rises=F Damp=F
 DIIS: error= 2.67D-03 at cycle   2 NSaved=   2.
 NSaved= 2 IEnMin= 2 EnMin=-0.126067231626251     IErMin= 2 ErrMin= 2.67D-03
 ErrMax= 2.67D-03  0.00D+00 EMaxC= 1.00D-01 BMatC= 9.65D-04 BMatP= 1.70D-02
 IDIUse=3 WtCom= 9.73D-01 WtEn= 2.67D-02
 Coeff-Com: -0.282D+00 0.128D+01
 Coeff-En:   0.000D+00 0.100D+01
 Coeff:     -0.274D+00 0.127D+01
 Fock symm off for IB=3 I1=    1 I=   14 J=    9 Cut=1.00D-07 Err=1.17D-03
 Fock matrix is not symmetric: symmetry in diagonalization turned off.
 Gap=     0.358 Goal=   None    Shift=    0.000
 RMSDP=2.86D-03 MaxDP=8.88D-03 DE=-4.75D-02 OVMax= 2.75D-02

 Cycle   3  Pass 1  IDiag  3:
 E=-0.129448363629635     Delta-E=       -0.003381132003 Rises=F Damp=F
 DIIS: error= 4.79D-04 at cycle   3 NSaved=   3.
 NSaved= 3 IEnMin= 3 EnMin=-0.129448363629635     IErMin= 3 ErrMin= 4.79D-04
 ErrMax= 4.79D-04  0.00D+00 EMaxC= 1.00D-01 BMatC= 1.93D-05 BMatP= 9.65D-04
 IDIUse=3 WtCom= 9.95D-01 WtEn= 4.79D-03
 Coeff-Com:  0.130D+00-0.640D+00 0.151D+01
 Coeff-En:   0.000D+00 0.000D+00 0.100D+01
 Coeff:      0.129D+00-0.637D+00 0.151D+01
 Gap=     0.358 Goal=   None    Shift=    0.000
 RMSDP=5.61D-04 MaxDP=1.98D-03 DE=-3.38D-03 OVMax= 5.66D-03

 Cycle   4  Pass 1  IDiag  3:
 E=-0.129538372857553     Delta-E=       -0.000090009228 Rises=F Damp=F
 DIIS: error= 5.64D-05 at cycle   4 NSaved=   4.
 NSaved= 4 IEnMin= 4 EnMin=-0.129538372857553     IErMin= 4 ErrMin= 5.64D-05
 ErrMax= 5.64D-05  0.00D+00 EMaxC= 1.00D-01 BMatC= 2.12D-07 BMatP= 1.93D-05
 IDIUse=1 WtCom= 1.00D+00 WtEn= 0.00D+00
 Coeff-Com: -0.351D-01 0.176D+00-0.459D+00 0.132D+01
 Coeff:     -0.351D-01 0.176D+00-0.459D+00 0.132D+01
 Gap=     0.359 Goal=   None    Shift=    0.000
 RMSDP=5.56D-05 MaxDP=1.84D-04 DE=-9.00D-05 OVMax= 5.67D-04

 Cycle   5  Pass 1  IDiag  3:
 E=-0.129539415871022     Delta-E=       -0.000001043013 Rises=F Damp=F
 DIIS: error= 8.81D-06 at cycle   5 NSaved=   5.
 NSaved= 5 IEnMin= 5 EnMin=-0.129539415871022     IErMin= 5 ErrMin= 8.81D-06
 ErrMax= 8.81D-06  0.00D+00 EMaxC= 1.00D-01 BMatC= 7.70D-09 BMatP= 2.12D-07
 IDIUse=1 WtCom= 1.00D+00 WtEn= 0.00D+00
 Coeff-Com:  0.252D-02-0.135D-01 0.418D-01-0.319D+00 0.129D+01
 Coeff:      0.252D-02-0.135D-01 0.418D-01-0.319D+00 0.129D+01
 Gap=     0.359 Goal=   None    Shift=    0.000
 RMSDP=1.25D-05 MaxDP=3.95D-05 DE=-1.04D-06 OVMax= 1.34D-04

 Cycle   6  Pass 1  IDiag  3:
 E=-0.129539455914511     Delta-E=       -0.000000040043 Rises=F Damp=F
 DIIS: error= 8.27D-07 at cycle   6 NSaved=   6.
 NSaved= 6 IEnMin= 6 EnMin=-0.129539455914511     IErMin= 6 ErrMin= 8.27D-07
 ErrMax= 8.27D-07  0.00D+00 EMaxC= 1.00D-01 BMatC= 5.58D-11 BMatP= 7.70D-09
 IDIUse=1 WtCom= 1.00D+00 WtEn= 0.00D+00
 Coeff-Com: -0.412D-03 0.238D-02-0.837D-02 0.863D-01-0.412D+00 0.133D+01
 Coeff:     -0.412D-03 0.238D-02-0.837D-02 0.863D-01-0.412D+00 0.133D+01
 Gap=     0.359 Goal=   None    Shift=    0.000
 RMSDP=9.76D-07 MaxDP=3.47D-06 DE=-4.00D-08 OVMax= 1.03D-05

 Cycle   7  Pass 1  IDiag  3:
 E=-0.129539456168573     Delta-E=       -0.000000000254 Rises=F Damp=F
 DIIS: error= 6.04D-08 at cycle   7 NSaved=   7.
 NSaved= 7 IEnMin= 7 EnMin=-0.129539456168573     IErMin= 7 ErrMin= 6.04D-08
 ErrMax= 6.04D-08  0.00D+00 EMaxC= 1.00D-01 BMatC= 4.26D-13 BMatP= 5.58D-11
 IDIUse=1 WtCom= 1.00D+00 WtEn= 0.00D+00
 Coeff-Com:  0.496D-04-0.343D-03 0.152D-02-0.220D-01 0.113D+00-0.398D+00
 Coeff-Com:  0.131D+01
 Coeff:      0.496D-04-0.343D-03 0.152D-02-0.220D-01 0.113D+00-0.398D+00
 Coeff:      0.131D+01
 Gap=     0.359 Goal=   None    Shift=    0.000
 RMSDP=6.31D-08 MaxDP=1.96D-07 DE=-2.54D-10 OVMax= 3.61D-07

 Cycle   8  Pass 1  IDiag  3:
 E=-0.129539456169994     Delta-E=       -0.000000000001 Rises=F Damp=F
 DIIS: error= 9.27D-09 at cycle   8 NSaved=   8.
 NSaved= 8 IEnMin= 8 EnMin=-0.129539456169994     IErMin= 8 ErrMin= 9.27D-09
 ErrMax= 9.27D-09  0.00D+00 EMaxC= 1.00D-01 BMatC= 8.50D-15 BMatP= 4.26D-13
 IDIUse=1 WtCom= 1.00D+00 WtEn= 0.00D+00
 Coeff-Com: -0.783D-05 0.662D-04-0.347D-03 0.595D-02-0.314D-01 0.113D+00
 Coeff-Com: -0.419D+00 0.133D+01
 Coeff:     -0.783D-05 0.662D-04-0.347D-03 0.595D-02-0.314D-01 0.113D+00
 Coeff:     -0.419D+00 0.133D+01
 Gap=     0.359 Goal=   None    Shift=    0.000
 RMSDP=1.05D-08 MaxDP=5.03D-08 DE=-1.42D-12 OVMax= 7.91D-08

 Cycle   9  Pass 1  IDiag  3:
 E=-0.129539456170221     Delta-E=        0.000000000000 Rises=F Damp=F
 DIIS: error= 3.08D-09 at cycle   9 NSaved=   9.
 NSaved= 9 IEnMin= 9 EnMin=-0.129539456170221     IErMin= 9 ErrMin= 3.08D-09
 ErrMax= 3.08D-09  0.00D+00 EMaxC= 1.00D-01 BMatC= 7.88D-16 BMatP= 8.50D-15
 IDIUse=1 WtCom= 1.00D+00 WtEn= 0.00D+00
 Coeff-Com:  0.291D-05-0.290D-04 0.169D-03-0.311D-02 0.166D-01-0.606D-01
 Coeff-Com:  0.226D+00-0.877D+00 0.170D+01
 Coeff:      0.291D-05-0.290D-04 0.169D-03-0.311D-02 0.166D-01-0.606D-01
 Coeff:      0.226D+00-0.877D+00 0.170D+01
 Gap=     0.359 Goal=   None    Shift=    0.000
 RMSDP=4.60D-09 MaxDP=2.57D-08 DE=-2.27D-13 OVMax= 4.46D-08

 Cycle  10  Pass 2  IDiag  1:
 SCF Done:  E(RPM6) = -0.129539456170     A.U. after   10 cycles
            NFock=  9  Conv=0.46D-08     -V/T= 0.9969
 KE=-4.234330641823D+01 PE=-1.273190619778D+02 EE= 7.970309045717D+01
 Leave Link  502 at Thu Sep 30 12:28:09 2021, MaxMem=   131072000 cpu:               0.1 elap:               0.1
 (Enter /home/qc/Bg16_b01_x86_64_avx2/g16/l601.exe)
 Copying SCF densities to generalized density rwf, IOpCl= 0 IROHF=0.

 **********************************************************************

            Population analysis using the SCF Density.

 **********************************************************************

 Orbital symmetries:
       Occupied  (A1') (E1') (E1') (E2') (E2') (A1') (A2") (E2')
                 (E2') (E1') (E1') (E1") (E1")
       Virtual   (E2') (E2') (E1') (E1') (A1') (E2") (E2") (E1')
                 (E1') (A2') (E2') (E2')
 The electronic state is 1-A1'.
 Alpha  occ. eigenvalues --   -0.74905  -0.59726  -0.59726  -0.52295  -0.52295
 Alpha  occ. eigenvalues --   -0.50704  -0.37196  -0.28172  -0.28172  -0.28076
 Alpha  occ. eigenvalues --   -0.28076  -0.06734  -0.06734
 Alpha virt. eigenvalues --    0.29124   0.29124   0.36811   0.36811   0.38594
 Alpha virt. eigenvalues --    0.39847   0.39847   0.47526   0.47526   0.50593
 Alpha virt. eigenvalues --    0.54072   0.54072
          Condensed to atoms (all electrons):
               1          2          3          4          5          6
     1  C    4.133132   0.000000   0.000000   0.000000   0.000000   0.000000
     2  C    0.000000   4.133132   0.000000   0.000000   0.000000   0.000000
     3  C    0.000000   0.000000   4.133132   0.000000   0.000000   0.000000
     4  C    0.000000   0.000000   0.000000   4.133132   0.000000   0.000000
     5  C    0.000000   0.000000   0.000000   0.000000   4.133132   0.000000
     6  H    0.000000   0.000000   0.000000   0.000000   0.000000   1.066868
     7  H    0.000000   0.000000   0.000000   0.000000   0.000000   0.000000
     8  H    0.000000   0.000000   0.000000   0.000000   0.000000   0.000000
     9  H    0.000000   0.000000   0.000000   0.000000   0.000000   0.000000
    10  H    0.000000   0.000000   0.000000   0.000000   0.000000   0.000000
               7          8          9         10
     1  C    0.000000   0.000000   0.000000   0.000000
     2  C    0.000000   0.000000   0.000000   0.000000
     3  C    0.000000   0.000000   0.000000   0.000000
     4  C    0.000000   0.000000   0.000000   0.000000
     5  C    0.000000   0.000000   0.000000   0.000000
     6  H    0.000000   0.000000   0.000000   0.000000
     7  H    1.066868   0.000000   0.000000   0.000000
     8  H    0.000000   1.066868   0.000000   0.000000
     9  H    0.000000   0.000000   1.066868   0.000000
    10  H    0.000000   0.000000   0.000000   1.066868
 Mulliken charges:
               1
     1  C   -0.133132
     2  C   -0.133132
     3  C   -0.133132
     4  C   -0.133132
     5  C   -0.133132
     6  H   -0.066868
     7  H   -0.066868
     8  H   -0.066868
     9  H   -0.066868
    10  H   -0.066868
 Sum of Mulliken charges =  -1.00000
 Mulliken charges with hydrogens summed into heavy atoms:
               1
     1  C   -0.200000
     2  C   -0.200000
     3  C   -0.200000
     4  C   -0.200000
     5  C   -0.200000
 Charge=             -1.0000 electrons
 Dipole moment (field-independent basis, Debye):
    X=              0.0000    Y=              0.0000    Z=              0.0000  Tot=              0.0000
 N-N= 8.982973848269D+01 E-N=-1.273190620084D+02  KE=-4.234330641823D+01
 Symmetry A1   KE=-1.920786769054D+01
 Symmetry A2   KE=-3.439912911350D+00
 Symmetry B1   KE=-1.229941771880D+01
 Symmetry B2   KE=-7.396108097538D+00
 Leave Link  601 at Thu Sep 30 12:28:10 2021, MaxMem=   131072000 cpu:               0.0 elap:               0.2
 (Enter /home/qc/Bg16_b01_x86_64_avx2/g16/l701.exe)
 ... and contract with generalized density number  0.
 Compute integral first derivatives.
 Leave Link  701 at Thu Sep 30 12:28:10 2021, MaxMem=   131072000 cpu:               0.1 elap:               0.1
 (Enter /home/qc/Bg16_b01_x86_64_avx2/g16/l702.exe)
 L702 exits ... SP integral derivatives will be done elsewhere.
 Leave Link  702 at Thu Sep 30 12:28:11 2021, MaxMem=   131072000 cpu:               0.0 elap:               0.1
 (Enter /home/qc/Bg16_b01_x86_64_avx2/g16/l703.exe)
 Integral derivatives from FoFJK, PRISM(SPDF).
 Compute integral first derivatives, UseDBF=F ICtDFT=           0.
 Calling FoFJK, ICntrl=      2127 FMM=F ISym2X=1 I1Cent= 0 IOpClX= 0 NMat=1 NMatS=1 NMatT=0.
 FoFJK:  IHMeth=40 ICntrl=    2127 DoSepK=F KAlg= 0 I1Cent=           0 FoldK=F
 IRaf=         0 NMat=       1 IRICut=       1 DoRegI=T DoRafI=F ISym2E= 1 IDoP0=3 IntGTp=3.
 FoFCou: FMM=F IPFlag=           0 FMFlag=      100000 FMFlg1=         800
         NFxFlg=           0 DoJE=F BraDBF=F KetDBF=F FulRan=T
         wScrn=  0.000000 ICntrl=      2127 IOpCl=  0 I1Cent=           0 NGrid=           0
         NMat0=    1 NMatS0=      1 NMatT0=    0 NMatD0=    1 NMtDS0=    0 NMtDT0=    0
 Petite list used in FoFCou.
 Leave Link  703 at Thu Sep 30 12:28:12 2021, MaxMem=   131072000 cpu:               0.1 elap:               0.1
 (Enter /home/qc/Bg16_b01_x86_64_avx2/g16/l716.exe)
 Dipole        =-3.91019596D-14 6.21724894D-15 1.44359105D-15
 ***** Axes restored to original set *****
 -------------------------------------------------------------------
 Center     Atomic                   Forces (Hartrees/Bohr)
 Number     Number              X              Y              Z
 -------------------------------------------------------------------
      1        6          -0.104987064    0.000000000   -0.076277563
      2        6          -0.104987061    0.000000000    0.076277568
      3        6           0.040101492    0.000000000    0.123419693
      4        6           0.129771146    0.000000000   -0.000000003
      5        6           0.040101487    0.000000000   -0.123419694
      6        1          -0.003746824    0.000000000    0.011531535
      7        1          -0.012124973    0.000000000   -0.000000001
      8        1          -0.003746822    0.000000000   -0.011531535
      9        1           0.009809310    0.000000000   -0.007126880
     10        1           0.009809309    0.000000000    0.007126881
 -------------------------------------------------------------------
 Cartesian Forces:  Max     0.129771146 RMS     0.053209594
 Leave Link  716 at Thu Sep 30 12:28:12 2021, MaxMem=   131072000 cpu:               0.1 elap:               0.1
 (Enter /home/qc/Bg16_b01_x86_64_avx2/g16/l103.exe)

 GradGradGradGradGradGradGradGradGradGradGradGradGradGradGradGradGradGrad
 Berny optimization.
 FormGI is forming the generalized inverse of G from B-inverse, IUseBI=4.
 Internal  Forces:  Max     0.100075812 RMS     0.033602551
 Search for a local minimum.
 Step number   1 out of a maximum of   55
 All quantities printed in internal units (Hartrees-Bohrs-Radians)
 RMS Force = .33603D-01 SwitMx=.10000D-02 MixMth= 1
 Mixed Optimization -- RFO/linear search
 Second derivative matrix not updated -- first step.
 ITU=  0
     Eigenvalues ---    0.02485   0.02485   0.02485   0.02485   0.02485
     Eigenvalues ---    0.02485   0.02485   0.16000   0.16000   0.16000
     Eigenvalues ---    0.16000   0.16000   0.22000   0.22000   0.33451
     Eigenvalues ---    0.33451   0.33451   0.33451   0.33451   0.44123
     Eigenvalues ---    0.44123   0.50964   0.50964   0.50964
 RFO step:  Lambda=-8.58414437D-02 EMin= 2.48474773D-02
 Linear search not attempted -- first point.
 Maximum step size (   0.300) exceeded in Quadratic search.
    -- Step size scaled by   0.787
 Iteration  1 RMS(Cart)=  0.04797424 RMS(Int)=  0.00000000
 Iteration  2 RMS(Cart)=  0.00000000 RMS(Int)=  0.00000000
 ITry= 1 IFail=0 DXMaxC= 1.12D-01 DCOld= 1.00D+10 DXMaxT= 3.00D-01 DXLimC= 3.00D+00 Rises=F
 ClnCor:  largest displacement from symmetrization is 2.53D-09 for atom     1.
 Variable       Old X    -DE/DX   Delta X   Delta X   Delta X     New X
                                 (Linear)    (Quad)   (Total)
    R1        2.58905   0.10008   0.00000   0.13223   0.13223   2.72128
    R2        2.58905   0.10008   0.00000   0.13223   0.13223   2.72128
    R3        2.08267  -0.01212   0.00000  -0.02270  -0.02270   2.05998
    R4        2.58905   0.10008   0.00000   0.13223   0.13223   2.72128
    R5        2.08267  -0.01212   0.00000  -0.02270  -0.02270   2.05998
    R6        2.58905   0.10008   0.00000   0.13223   0.13223   2.72128
    R7        2.08267  -0.01212   0.00000  -0.02270  -0.02270   2.05998
    R8        2.58905   0.10008   0.00000   0.13223   0.13223   2.72128
    R9        2.08267  -0.01212   0.00000  -0.02270  -0.02270   2.05998
   R10        2.08267  -0.01212   0.00000  -0.02270  -0.02270   2.05998
    A1        1.88496   0.00000   0.00000   0.00000   0.00000   1.88496
    A2        2.19911   0.00000   0.00000   0.00000   0.00000   2.19911
    A3        2.19911   0.00000   0.00000   0.00000   0.00000   2.19911
    A4        1.88496   0.00000   0.00000   0.00000   0.00000   1.88496
    A5        2.19911   0.00000   0.00000   0.00000   0.00000   2.19911
    A6        2.19911   0.00000   0.00000   0.00000   0.00000   2.19911
    A7        1.88496   0.00000   0.00000   0.00000   0.00000   1.88496
    A8        2.19911   0.00000   0.00000   0.00000   0.00000   2.19911
    A9        2.19911   0.00000   0.00000   0.00000   0.00000   2.19911
   A10        1.88496   0.00000   0.00000   0.00000   0.00000   1.88496
   A11        2.19911   0.00000   0.00000   0.00000   0.00000   2.19911
   A12        2.19911   0.00000   0.00000   0.00000   0.00000   2.19911
   A13        1.88496   0.00000   0.00000   0.00000   0.00000   1.88496
   A14        2.19911   0.00000   0.00000   0.00000   0.00000   2.19911
   A15        2.19911   0.00000   0.00000   0.00000   0.00000   2.19911
    D1        0.00000   0.00000   0.00000   0.00000   0.00000   0.00000
    D2        3.14159   0.00000   0.00000   0.00000   0.00000   3.14159
    D3        3.14159   0.00000   0.00000   0.00000   0.00000   3.14159
    D4        0.00000   0.00000   0.00000   0.00000   0.00000   0.00000
    D5        0.00000   0.00000   0.00000   0.00000   0.00000   0.00000
    D6        3.14159   0.00000   0.00000   0.00000   0.00000   3.14159
    D7        3.14159   0.00000   0.00000   0.00000   0.00000   3.14159
    D8        0.00000   0.00000   0.00000   0.00000   0.00000   0.00000
    D9        0.00000   0.00000   0.00000   0.00000   0.00000   0.00000
   D10        3.14159   0.00000   0.00000   0.00000   0.00000   3.14159
   D11        3.14159   0.00000   0.00000   0.00000   0.00000   3.14159
   D12        0.00000   0.00000   0.00000   0.00000   0.00000   0.00000
   D13        0.00000   0.00000   0.00000   0.00000   0.00000   0.00000
   D14        3.14159   0.00000   0.00000   0.00000   0.00000   3.14159
   D15        3.14159   0.00000   0.00000   0.00000   0.00000   3.14159
   D16        0.00000   0.00000   0.00000   0.00000   0.00000   0.00000
   D17        0.00000   0.00000   0.00000   0.00000   0.00000   0.00000
   D18        3.14159   0.00000   0.00000   0.00000   0.00000   3.14159
   D19        3.14159   0.00000   0.00000   0.00000   0.00000   3.14159
   D20        0.00000   0.00000   0.00000   0.00000   0.00000   0.00000
         Item               Value     Threshold  Converged?
 Maximum Force            0.100076     0.000450     NO 
 RMS     Force            0.033603     0.000300     NO 
 Maximum Displacement     0.112482     0.001800     NO 
 RMS     Displacement     0.047974     0.001200     NO 
 Predicted change in Energy=-4.483292D-02
 Lowest energy point so far.  Saving SCF results.
 GradGradGradGradGradGradGradGradGradGradGradGradGradGradGradGradGradGrad

 Leave Link  103 at Thu Sep 30 12:28:12 2021, MaxMem=   131072000 cpu:               0.0 elap:               0.0
 (Enter /home/qc/Bg16_b01_x86_64_avx2/g16/l202.exe)
                          Input orientation:                          
 ---------------------------------------------------------------------
 Center     Atomic      Atomic             Coordinates (Angstroms)
 Number     Number       Type             X           Y           Z
 ---------------------------------------------------------------------
      1          6           0       -0.048155    0.000000   -0.034987
      2          6           0       -0.048155    0.000000    1.405051
      3          6           0        1.321402    0.000000    1.850047
      4          6           0        2.167835    0.000000    0.685032
      5          6           0        1.321402    0.000000   -0.479983
      6          1           0        1.658260    0.000000   -1.516724
      7          1           0        3.257929    0.000000    0.685032
      8          1           0        1.658260    0.000000    2.886788
      9          1           0       -0.930059    0.000000    2.045792
     10          1           0       -0.930059    0.000000   -0.675728
 ---------------------------------------------------------------------
                    Distance matrix (angstroms):
                    1          2          3          4          5
     1  C    0.000000
     2  C    1.440038   0.000000
     3  C    2.330030   1.440038   0.000000
     4  C    2.330030   2.330030   1.440038   0.000000
     5  C    1.440038   2.330030   2.330030   1.440038   0.000000
     6  H    2.259955   3.383581   3.383581   2.259955   1.090094
     7  H    3.383581   3.383581   2.259955   1.090094   2.259955
     8  H    3.383581   2.259955   1.090094   2.259955   3.383581
     9  H    2.259955   1.090094   2.259955   3.383581   3.383581
    10  H    1.090094   2.259955   3.383581   3.383581   2.259955
                    6          7          8          9         10
     6  H    0.000000
     7  H    2.721520   0.000000
     8  H    4.403511   2.721520   0.000000
     9  H    4.403511   4.403511   2.721520   0.000000
    10  H    2.721520   4.403511   4.403511   2.721520   0.000000
 Stoichiometry    C5H5(1-)
 Framework group  D5H[5C2(.CH)]
 Deg. of freedom     2
 Full point group                 D5H     NOp  20
 RotChk:  IX=0 Diff= 2.37D-16
 Largest Abelian subgroup         C2V     NOp   4
 Largest concise Abelian subgroup C2      NOp   2
                         Standard orientation:                         
 ---------------------------------------------------------------------
 Center     Atomic      Atomic             Coordinates (Angstroms)
 Number     Number       Type             X           Y           Z
 ---------------------------------------------------------------------
      1          6           0        0.000000    1.224969    0.000000
      2          6           0        1.165015    0.378536    0.000000
      3          6           0        0.720019   -0.991021    0.000000
      4          6           0       -0.720019   -0.991021    0.000000
      5          6           0       -1.165015    0.378536    0.000000
      6          1           0       -2.201756    0.715394    0.000000
      7          1           0       -1.360760   -1.872925    0.000000
      8          1           0        1.360760   -1.872925    0.000000
      9          1           0        2.201756    0.715394    0.000000
     10          1           0        0.000000    2.315063    0.000000
 ---------------------------------------------------------------------
 Rotational constants (GHZ):           8.6359868           8.6359868           4.3179934
 Leave Link  202 at Thu Sep 30 12:28:12 2021, MaxMem=   131072000 cpu:               0.0 elap:               0.0
 (Enter /home/qc/Bg16_b01_x86_64_avx2/g16/l301.exe)

 Semi-emprical parameters in input format:
 Method=40 CoreType=2 PeptideFC=0.0000000000 RIJScale=0.0000000000 PM6R6=0.0000124488
 PM6R12=0.0000007621 ExpSw=0 CofSw=0.0000000000 R0Sw=0.0000000000 XabDefault=10.0000000000
 AabDefault=1.1536063198 PM7OH3=0.0000000000 PM7OH4=0.0000000000 PM6HCC=3674.9303600697
 ****
 H       
 PQN=1,0,0,0 NValence=1 F0ss=0.5032815131 F0sp=0.0000000000 F0pp=0.0000000000
 F0sd=0.0000000000 F0pd=0.0000000000 F0dd=0.0000000000 F2pp=0.0000000000 F2pd=0.0000000000
 F2dd=0.0000000000 F4dd=0.0000000000 G1sp=0.0000000000 G1pd=0.0000000000 G2sd=0.0000000000
 G3pd=0.0000000000 Rsppd=0.0000000000 Rsdpp=0.0000000000 Rsddd=0.0000000000
 ZetaOverlap=1.3463838844,0.0000000000,0.0000000000,0.0000000000
 Zeta1C=0.0000000000,0.0000000000,0.0000000000,0.0000000000
 U=-0.4742261814,0.0000000000,0.0000000000,0.0000000000
 Beta=-0.4668995543,0.0000000000,0.0000000000,0.0000000000 DDN=0,0,0.0000000000
 DDN=0,1,0.0000000000 DDN=1,1,0.0000000000 DDN=0,2,0.0000000000 DDN=1,2,0.0000000000
 DDN=2,2,0.0000000000 DDN=0,3,0.0000000000 DDN=1,3,0.0000000000 DDN=2,3,0.0000000000
 DDN=3,3,0.0000000000 CoreKO=0.7758606914 KON=0,0,0,0.9934797663 KON=1,0,0,0.0000000000
 KON=2,0,0,0.0000000000 KON=3,0,0,0.0000000000 KON=0,0,1,0.0000000000 KON=1,0,1,0.0000000000
 KON=2,0,1,0.0000000000 KON=3,0,1,0.0000000000 KON=0,1,1,0.0000000000 KON=1,1,1,0.0000000000
 KON=2,1,1,0.0000000000 KON=3,1,1,0.0000000000 KON=0,0,2,0.0000000000 KON=1,0,2,0.0000000000
 KON=2,0,2,0.0000000000 KON=3,0,2,0.0000000000 KON=0,1,2,0.0000000000 KON=1,1,2,0.0000000000
 KON=2,1,2,0.0000000000 KON=3,1,2,0.0000000000 KON=0,2,2,0.0000000000 KON=1,2,2,0.0000000000
 KON=2,2,2,0.0000000000 KON=3,2,2,0.0000000000 KON=0,0,3,0.0000000000 KON=1,0,3,0.0000000000
 KON=2,0,3,0.0000000000 KON=3,0,3,0.0000000000 KON=0,1,3,0.0000000000 KON=1,1,3,0.0000000000
 KON=2,1,3,0.0000000000 KON=3,1,3,0.0000000000 KON=0,2,3,0.0000000000 KON=1,2,3,0.0000000000
 KON=2,2,3,0.0000000000 KON=3,2,3,0.0000000000 KON=0,3,3,0.0000000000 KON=1,3,3,0.0000000000
 KON=2,3,3,0.0000000000 KON=3,3,3,0.0000000000 EISol=-0.4742261814 EHeat=0.0830298221
 Alpha=0.0000000000 DipHyp=0.0000000000
 GCore=-0.0119162797,0.8775921519,3.3643669281 DCore=1,3,1.8737858116,2.2435870000,0.0000000000,0.0000000000,0.0000000000
 ****
 C       
 PQN=2,2,0,0 NValence=4 F0ss=0.4184175168 F0sp=0.3620114552 F0pp=0.5405148012
 F0sd=0.0000000000 F0pd=0.0000000000 F0dd=0.0000000000 F2pp=0.6778458555 F2pd=0.0000000000
 F2dd=0.0000000000 F4dd=0.0000000000 G1sp=0.1211343170 G1pd=0.0000000000 G2sd=0.0000000000
 G3pd=0.0000000000 Rsppd=0.0000000000 Rsdpp=0.0000000000 Rsddd=0.0000000000
 ZetaOverlap=1.8286852822,1.5061691258,0.0000000000,0.0000000000
 Zeta1C=0.0000000000,0.0000000000,0.0000000000,0.0000000000
 U=-1.5480887492,-1.6936981163,0.0000000000,0.0000000000
 Beta=-0.1456835353,-0.3790279656,0.0000000000,0.0000000000 DDN=0,0,0.0000000000
 DDN=0,1,0.8455316356 DDN=1,1,0.8131522884 DDN=0,2,0.0000000000 DDN=1,2,0.0000000000
 DDN=2,2,0.0000000000 DDN=0,3,0.0000000000 DDN=1,3,0.0000000000 DDN=2,3,0.0000000000
 DDN=3,3,0.0000000000 CoreKO=1.2740393308 KON=0,0,0,1.1949786515 KON=1,0,0,0.0000000000
 KON=2,0,0,0.0000000000 KON=3,0,0,0.0000000000 KON=0,0,1,0.0000000000 KON=1,0,1,1.1713187703
 KON=2,0,1,0.0000000000 KON=3,0,1,0.0000000000 KON=0,1,1,1.1949786515 KON=1,1,1,0.0000000000
 KON=2,1,1,0.5173707381 KON=3,1,1,0.0000000000 KON=0,0,2,0.0000000000 KON=1,0,2,0.0000000000
 KON=2,0,2,0.0000000000 KON=3,0,2,0.0000000000 KON=0,1,2,0.0000000000 KON=1,1,2,0.0000000000
 KON=2,1,2,0.0000000000 KON=3,1,2,0.0000000000 KON=0,2,2,0.0000000000 KON=1,2,2,0.0000000000
 KON=2,2,2,0.0000000000 KON=3,2,2,0.0000000000 KON=0,0,3,0.0000000000 KON=1,0,3,0.0000000000
 KON=2,0,3,0.0000000000 KON=3,0,3,0.0000000000 KON=0,1,3,0.0000000000 KON=1,1,3,0.0000000000
 KON=2,1,3,0.0000000000 KON=3,1,3,0.0000000000 KON=0,2,3,0.0000000000 KON=1,2,3,0.0000000000
 KON=2,2,3,0.0000000000 KON=3,2,3,0.0000000000 KON=0,3,3,0.0000000000 KON=1,3,3,0.0000000000
 KON=2,3,3,0.0000000000 KON=3,3,3,0.0000000000 EISol=-4.2929209746 EHeat=0.2723305496
 Alpha=0.0000000000 DipHyp=1.6909658931
 GCore=0.0105311240,0.6127683039,2.6057930524 DCore=1,4,0.2878149936,0.2165060000,0.0000000000,0.0000000000,0.0000000000
 DCore=2,3,1.6101301456,3.2139710000,0.0000000000,0.0000000000,0.0000000000
 DCore=3,3,1.7155258415,16.1800020000,0.0000000000,0.0000000000,0.0000000000
 DCore=4,3,2.2293611467,25.0358790000,0.0000000000,0.0000000000,0.0000000000
 DCore=5,3,1.5446719829,1.8748590000,0.0000000000,0.0000000000,0.0000000000
 DCore=6,5,1.3831173555,0.8135100000,3.1644797213,9.2800000000,0.0000000000
 ****
 
 Standard basis: VSTO-6G (5D, 7F)
 Ernie: Thresh=  0.10000D-02 Tol=  0.10000D-05 Strict=F.
  NNHCO=     0 NNPyr=     0 NCTC=     0               EPep=         0.000000000
    EC=        59.989193171  ECS=         1.789673563   EG=         0.688514929
   EHC=         0.000285977  EAt=       -23.835735780  AtH=         1.776801858
 EPDDG=         0.000000000  ECC=        62.467667640 EAtT=        25.612537638
 There are    11 symmetry adapted cartesian basis functions of A1  symmetry.
 There are     2 symmetry adapted cartesian basis functions of A2  symmetry.
 There are     9 symmetry adapted cartesian basis functions of B1  symmetry.
 There are     3 symmetry adapted cartesian basis functions of B2  symmetry.
 There are    11 symmetry adapted basis functions of A1  symmetry.
 There are     2 symmetry adapted basis functions of A2  symmetry.
 There are     9 symmetry adapted basis functions of B1  symmetry.
 There are     3 symmetry adapted basis functions of B2  symmetry.
    25 basis functions,   150 primitive gaussians,    25 cartesian basis functions
    13 alpha electrons       13 beta electrons
       nuclear repulsion energy        88.0802052786 Hartrees.
 IExCor=    0 DFT=F Ex=HF Corr=None ExCW=0 ScaHFX=  1.000000
 ScaDFX=  1.000000  1.000000  1.000000  1.000000 ScalE2=  1.000000  1.000000
 IRadAn=      5 IRanWt=     -1 IRanGd=            0 ICorTp=0 IEmpDi=  4
 Integral buffers will be    131072 words long.
 Regular integral format.
 Two-electron integral symmetry is turned off.
 Leave Link  301 at Thu Sep 30 12:28:12 2021, MaxMem=   131072000 cpu:               0.1 elap:               0.1
 (Enter /home/qc/Bg16_b01_x86_64_avx2/g16/l302.exe)
 Do NDO integrals.
 NPDir=0 NMtPBC=     1 NCelOv=     1 NCel=       1 NClECP=     1 NCelD=      1
         NCelK=      1 NCelE2=     1 NClLst=     1 CellRange=     0.0.
 One-electron integrals computed using PRISM.
 NBasis=    25 RedAO= T EigKep=  1.00D+00  NBF=    11     2     9     3
 NBsUse=    25 1.00D-06 EigRej= -1.00D+00 NBFU=    11     2     9     3
 Leave Link  302 at Thu Sep 30 12:28:13 2021, MaxMem=   131072000 cpu:               0.1 elap:               0.1
 (Enter /home/qc/Bg16_b01_x86_64_avx2/g16/l303.exe)
 DipDrv:  MaxL=1.
 Leave Link  303 at Thu Sep 30 12:28:13 2021, MaxMem=   131072000 cpu:               0.0 elap:               0.0
 (Enter /home/qc/Bg16_b01_x86_64_avx2/g16/l401.exe)
 Initial guess from the checkpoint file:  "//scratch/brent/opt_2021-09-30_12_28_02/Gau-23259.chk"
 B after Tr=     0.000000    0.000000    0.000000
         Rot=    1.000000    0.000000    0.000000    0.000000 Ang=   0.00 deg.
 Guess basis will be translated and rotated to current coordinates.
 JPrj=0 DoOrth=T DoCkMO=T.
 Initial guess orbital symmetries:
       Occupied  (A1') (E1') (E1') (E2') (E2') (A1') (A2") (E2')
                 (E2') (E1') (E1') (E1") (E1")
       Virtual   (E2') (E2') (E1') (E1') (A1') (E2") (E2") (E1')
                 (E1') (A2') (E2') (E2')
 The electronic state of the initial guess is 1-A1'.
 Leave Link  401 at Thu Sep 30 12:28:13 2021, MaxMem=   131072000 cpu:               0.1 elap:               0.1
 (Enter /home/qc/Bg16_b01_x86_64_avx2/g16/l502.exe)
 Keep J ints in memory in canonical form, NReq=860810.
 FoFCou: FMM=F IPFlag=           0 FMFlag=           0 FMFlg1=           0
         NFxFlg=           0 DoJE=F BraDBF=F KetDBF=F FulRan=T
         wScrn=  0.000000 ICntrl=       600 IOpCl=  2 I1Cent=           0 NGrid=           0
         NMat0=    1 NMatS0=     55 NMatT0=    0 NMatD0=    1 NMtDS0=    0 NMtDT0=    0
 Symmetry not used in FoFCou.
 Two-electron integral symmetry not used.
 Closed shell SCF:
 Using DIIS extrapolation, IDIIS=  1040.
 Overlap will be assumed to be unity.
 NGot=   131072000 LenX=   131009591 LenY=   131008525
 Requested convergence on RMS density matrix=1.00D-08 within 128 cycles.
 Requested convergence on MAX density matrix=1.00D-06.
 Requested convergence on             energy=1.00D-06.
 No special actions if energy rises.
 An orbital has undefined symmetry, so N**3 symmetry is turned off.

 Cycle   1  Pass 1  IDiag  1:
 E=-0.163033506482265    
 DIIS: error= 4.28D-03 at cycle   1 NSaved=   1.
 NSaved= 1 IEnMin= 1 EnMin=-0.163033506482265     IErMin= 1 ErrMin= 4.28D-03
 ErrMax= 4.28D-03  0.00D+00 EMaxC= 1.00D-01 BMatC= 1.88D-03 BMatP= 1.88D-03
 IDIUse=3 WtCom= 9.57D-01 WtEn= 4.28D-02
 Coeff-Com:  0.100D+01
 Coeff-En:   0.100D+01
 Coeff:      0.100D+01
 GapD=    2.000 DampG=2.000 DampE=1.000 DampFc=2.0000 IDamp=-1.
 RMSDP=2.54D-03 MaxDP=1.15D-02              OVMax= 0.00D+00

 Cycle   2  Pass 1  IDiag  3:
 E=-0.167768891317778     Delta-E=       -0.004735384836 Rises=F Damp=F
 DIIS: error= 9.22D-04 at cycle   2 NSaved=   2.
 NSaved= 2 IEnMin= 2 EnMin=-0.167768891317778     IErMin= 2 ErrMin= 9.22D-04
 ErrMax= 9.22D-04  0.00D+00 EMaxC= 1.00D-01 BMatC= 9.52D-05 BMatP= 1.88D-03
 IDIUse=3 WtCom= 9.91D-01 WtEn= 9.22D-03
 Coeff-Com: -0.265D+00 0.127D+01
 Coeff-En:   0.000D+00 0.100D+01
 Coeff:     -0.263D+00 0.126D+01
 Gap=     0.353 Goal=   None    Shift=    0.000
 RMSDP=7.73D-04 MaxDP=3.31D-03 DE=-4.74D-03 OVMax= 5.54D-03

 Cycle   3  Pass 1  IDiag  3:
 E=-0.168055173597367     Delta-E=       -0.000286282280 Rises=F Damp=F
 DIIS: error= 1.42D-04 at cycle   3 NSaved=   3.
 NSaved= 3 IEnMin= 3 EnMin=-0.168055173597367     IErMin= 3 ErrMin= 1.42D-04
 ErrMax= 1.42D-04  0.00D+00 EMaxC= 1.00D-01 BMatC= 1.60D-06 BMatP= 9.52D-05
 IDIUse=3 WtCom= 9.99D-01 WtEn= 1.42D-03
 Coeff-Com:  0.106D+00-0.547D+00 0.144D+01
 Coeff-En:   0.000D+00 0.000D+00 0.100D+01
 Coeff:      0.106D+00-0.546D+00 0.144D+01
 Gap=     0.353 Goal=   None    Shift=    0.000
 RMSDP=1.47D-04 MaxDP=6.21D-04 DE=-2.86D-04 OVMax= 1.05D-03

 Cycle   4  Pass 1  IDiag  3:
 E=-0.168062397125269     Delta-E=       -0.000007223528 Rises=F Damp=F
 DIIS: error= 2.19D-05 at cycle   4 NSaved=   4.
 NSaved= 4 IEnMin= 4 EnMin=-0.168062397125269     IErMin= 4 ErrMin= 2.19D-05
 ErrMax= 2.19D-05  0.00D+00 EMaxC= 1.00D-01 BMatC= 2.91D-08 BMatP= 1.60D-06
 IDIUse=1 WtCom= 1.00D+00 WtEn= 0.00D+00
 Coeff-Com: -0.223D-01 0.118D+00-0.409D+00 0.131D+01
 Coeff:     -0.223D-01 0.118D+00-0.409D+00 0.131D+01
 Gap=     0.353 Goal=   None    Shift=    0.000
 RMSDP=2.35D-05 MaxDP=8.25D-05 DE=-7.22D-06 OVMax= 2.17D-04

 Cycle   5  Pass 1  IDiag  3:
 E=-0.168062546465848     Delta-E=       -0.000000149341 Rises=F Damp=F
 DIIS: error= 2.35D-06 at cycle   5 NSaved=   5.
 NSaved= 5 IEnMin= 5 EnMin=-0.168062546465848     IErMin= 5 ErrMin= 2.35D-06
 ErrMax= 2.35D-06  0.00D+00 EMaxC= 1.00D-01 BMatC= 3.80D-10 BMatP= 2.91D-08
 IDIUse=1 WtCom= 1.00D+00 WtEn= 0.00D+00
 Coeff-Com:  0.525D-02-0.282D-01 0.107D+00-0.419D+00 0.133D+01
 Coeff:      0.525D-02-0.282D-01 0.107D+00-0.419D+00 0.133D+01
 Gap=     0.353 Goal=   None    Shift=    0.000
 RMSDP=2.44D-06 MaxDP=7.94D-06 DE=-1.49D-07 OVMax= 2.48D-05

 Cycle   6  Pass 1  IDiag  3:
 E=-0.168062548144206     Delta-E=       -0.000000001678 Rises=F Damp=F
 DIIS: error= 1.46D-07 at cycle   6 NSaved=   6.
 NSaved= 6 IEnMin= 6 EnMin=-0.168062548144206     IErMin= 6 ErrMin= 1.46D-07
 ErrMax= 1.46D-07  0.00D+00 EMaxC= 1.00D-01 BMatC= 2.30D-12 BMatP= 3.80D-10
 IDIUse=1 WtCom= 1.00D+00 WtEn= 0.00D+00
 Coeff-Com: -0.139D-02 0.752D-02-0.301D-01 0.126D+00-0.443D+00 0.134D+01
 Coeff:     -0.139D-02 0.752D-02-0.301D-01 0.126D+00-0.443D+00 0.134D+01
 Gap=     0.353 Goal=   None    Shift=    0.000
 RMSDP=1.89D-07 MaxDP=5.17D-07 DE=-1.68D-09 OVMax= 1.50D-06

 Cycle   7  Pass 1  IDiag  3:
 E=-0.168062548154225     Delta-E=       -0.000000000010 Rises=F Damp=F
 DIIS: error= 3.50D-08 at cycle   7 NSaved=   7.
 NSaved= 7 IEnMin= 7 EnMin=-0.168062548154225     IErMin= 7 ErrMin= 3.50D-08
 ErrMax= 3.50D-08  0.00D+00 EMaxC= 1.00D-01 BMatC= 3.74D-14 BMatP= 2.30D-12
 IDIUse=1 WtCom= 1.00D+00 WtEn= 0.00D+00
 Coeff-Com:  0.802D-04-0.462D-03 0.240D-02-0.124D-01 0.524D-01-0.233D+00
 Coeff-Com:  0.119D+01
 Coeff:      0.802D-04-0.462D-03 0.240D-02-0.124D-01 0.524D-01-0.233D+00
 Coeff:      0.119D+01
 Gap=     0.353 Goal=   None    Shift=    0.000
 RMSDP=1.77D-08 MaxDP=9.99D-08 DE=-1.00D-11 OVMax= 9.13D-08

 Cycle   8  Pass 1  IDiag  3:
 E=-0.168062548154225     Delta-E=        0.000000000000 Rises=F Damp=F
 DIIS: error= 1.45D-09 at cycle   8 NSaved=   8.
 NSaved= 8 IEnMin= 7 EnMin=-0.168062548154225     IErMin= 8 ErrMin= 1.45D-09
 ErrMax= 1.45D-09  0.00D+00 EMaxC= 1.00D-01 BMatC= 2.54D-16 BMatP= 3.74D-14
 IDIUse=1 WtCom= 1.00D+00 WtEn= 0.00D+00
 Coeff-Com: -0.126D-04 0.778D-04-0.508D-03 0.295D-02-0.134D-01 0.652D-01
 Coeff-Com: -0.357D+00 0.130D+01
 Coeff:     -0.126D-04 0.778D-04-0.508D-03 0.295D-02-0.134D-01 0.652D-01
 Coeff:     -0.357D+00 0.130D+01
 Gap=     0.353 Goal=   None    Shift=    0.000
 RMSDP=1.64D-09 MaxDP=7.25D-09 DE= 0.00D+00 OVMax= 1.03D-08

 Cycle   9  Pass 2  IDiag  1:
 SCF Done:  E(RPM6) = -0.168062548154     A.U. after    9 cycles
            NFock=  8  Conv=0.16D-08     -V/T= 0.9960
 KE=-4.219184940307D+01 PE=-1.243366107266D+02 EE= 7.828019230294D+01
 Leave Link  502 at Thu Sep 30 12:28:13 2021, MaxMem=   131072000 cpu:               0.0 elap:               0.0
 (Enter /home/qc/Bg16_b01_x86_64_avx2/g16/l701.exe)
 ... and contract with generalized density number  0.
 Compute integral first derivatives.
 Leave Link  701 at Thu Sep 30 12:28:13 2021, MaxMem=   131072000 cpu:               0.1 elap:               0.1
 (Enter /home/qc/Bg16_b01_x86_64_avx2/g16/l702.exe)
 L702 exits ... SP integral derivatives will be done elsewhere.
 Leave Link  702 at Thu Sep 30 12:28:13 2021, MaxMem=   131072000 cpu:               0.0 elap:               0.0
 (Enter /home/qc/Bg16_b01_x86_64_avx2/g16/l703.exe)
 Integral derivatives from FoFJK, PRISM(SPDF).
 Compute integral first derivatives, UseDBF=F ICtDFT=           0.
 Calling FoFJK, ICntrl=      2127 FMM=F ISym2X=1 I1Cent= 0 IOpClX= 0 NMat=1 NMatS=1 NMatT=0.
 FoFJK:  IHMeth=40 ICntrl=    2127 DoSepK=F KAlg= 0 I1Cent=           0 FoldK=F
 IRaf=         0 NMat=       1 IRICut=       1 DoRegI=T DoRafI=F ISym2E= 1 IDoP0=3 IntGTp=3.
 FoFCou: FMM=F IPFlag=           0 FMFlag=      100000 FMFlg1=         800
         NFxFlg=           0 DoJE=F BraDBF=F KetDBF=F FulRan=T
         wScrn=  0.000000 ICntrl=      2127 IOpCl=  0 I1Cent=           0 NGrid=           0
         NMat0=    1 NMatS0=      1 NMatT0=    0 NMatD0=    1 NMtDS0=    0 NMtDT0=    0
 Petite list used in FoFCou.
 Leave Link  703 at Thu Sep 30 12:28:13 2021, MaxMem=   131072000 cpu:               0.0 elap:               0.0
 (Enter /home/qc/Bg16_b01_x86_64_avx2/g16/l716.exe)
 Dipole        =-4.58373933D-15-1.86517468D-14 3.23212486D-15
 ***** Axes restored to original set *****
 -------------------------------------------------------------------
 Center     Atomic                   Forces (Hartrees/Bohr)
 Number     Number              X              Y              Z
 -------------------------------------------------------------------
      1        6          -0.021780439    0.000000000   -0.015824418
      2        6          -0.021780442    0.000000000    0.015824415
      3        6           0.008319386    0.000000000    0.025604444
      4        6           0.026922105    0.000000000    0.000000002
      5        6           0.008319390    0.000000000   -0.025604443
      6        1          -0.001746454    0.000000000    0.005375036
      7        1          -0.005651647    0.000000000    0.000000001
      8        1          -0.001746456    0.000000000   -0.005375035
      9        1           0.004572278    0.000000000   -0.003321955
     10        1           0.004572279    0.000000000    0.003321954
 -------------------------------------------------------------------
 Cartesian Forces:  Max     0.026922105 RMS     0.011230471
 Leave Link  716 at Thu Sep 30 12:28:13 2021, MaxMem=   131072000 cpu:               0.0 elap:               0.0
 (Enter /home/qc/Bg16_b01_x86_64_avx2/g16/l103.exe)

 GradGradGradGradGradGradGradGradGradGradGradGradGradGradGradGradGradGrad
 Berny optimization.
 Using GEDIIS/GDIIS optimizer.
 FormGI is forming the generalized inverse of G from B-inverse, IUseBI=4.
 Internal  Forces:  Max     0.018093732 RMS     0.006318617
 Search for a local minimum.
 Step number   2 out of a maximum of   55
 All quantities printed in internal units (Hartrees-Bohrs-Radians)
 RMS Force = .63186D-02 SwitMx=.10000D-02 MixMth= 1
 Mixed Optimization -- RFO/linear search
 Update second derivatives using D2CorX and points    1    2
 DE= -3.85D-02 DEPred=-4.48D-02 R= 8.59D-01
 TightC=F SS=  1.41D+00  RLast= 3.00D-01 DXNew= 5.0454D-01 9.0000D-01
 Trust test= 8.59D-01 RLast= 3.00D-01 DXMaxT set to 5.05D-01
 ITU=  1  0
 Use linear search instead of GDIIS.
     Eigenvalues ---    0.02485   0.02485   0.02485   0.02485   0.02485
     Eigenvalues ---    0.02485   0.02485   0.16000   0.16000   0.16000
     Eigenvalues ---    0.16000   0.16000   0.22000   0.22000   0.33175
     Eigenvalues ---    0.33451   0.33451   0.33451   0.33451   0.44630
     Eigenvalues ---    0.44630   0.50964   0.50964   0.62159
 RFO step:  Lambda=-3.23869087D-04 EMin= 2.48474773D-02
 Quartic linear search produced a step of  0.28988.
 Iteration  1 RMS(Cart)=  0.01120358 RMS(Int)=  0.00000000
 Iteration  2 RMS(Cart)=  0.00000000 RMS(Int)=  0.00000000
 ITry= 1 IFail=0 DXMaxC= 3.17D-02 DCOld= 1.00D+10 DXMaxT= 5.05D-01 DXLimC= 3.00D+00 Rises=F
 ClnCor:  largest displacement from symmetrization is 6.10D-09 for atom     3.
 Variable       Old X    -DE/DX   Delta X   Delta X   Delta X     New X
                                 (Linear)    (Quad)   (Total)
    R1        2.72128   0.01809   0.03833  -0.00109   0.03724   2.75851
    R2        2.72128   0.01809   0.03833  -0.00109   0.03724   2.75851
    R3        2.05998  -0.00565  -0.00658  -0.01385  -0.02043   2.03954
    R4        2.72128   0.01809   0.03833  -0.00109   0.03724   2.75851
    R5        2.05998  -0.00565  -0.00658  -0.01385  -0.02043   2.03954
    R6        2.72128   0.01809   0.03833  -0.00109   0.03724   2.75851
    R7        2.05998  -0.00565  -0.00658  -0.01385  -0.02043   2.03954
    R8        2.72128   0.01809   0.03833  -0.00109   0.03724   2.75851
    R9        2.05998  -0.00565  -0.00658  -0.01385  -0.02043   2.03954
   R10        2.05998  -0.00565  -0.00658  -0.01385  -0.02043   2.03954
    A1        1.88496   0.00000   0.00000   0.00000   0.00000   1.88496
    A2        2.19911   0.00000   0.00000   0.00000   0.00000   2.19911
    A3        2.19911   0.00000   0.00000   0.00000   0.00000   2.19911
    A4        1.88496   0.00000   0.00000   0.00000   0.00000   1.88496
    A5        2.19911   0.00000   0.00000   0.00000   0.00000   2.19911
    A6        2.19911   0.00000   0.00000   0.00000   0.00000   2.19911
    A7        1.88496   0.00000   0.00000   0.00000   0.00000   1.88496
    A8        2.19911   0.00000   0.00000   0.00000   0.00000   2.19911
    A9        2.19911   0.00000   0.00000   0.00000   0.00000   2.19911
   A10        1.88496   0.00000   0.00000   0.00000   0.00000   1.88496
   A11        2.19911   0.00000   0.00000   0.00000   0.00000   2.19911
   A12        2.19911   0.00000   0.00000   0.00000   0.00000   2.19911
   A13        1.88496   0.00000   0.00000   0.00000   0.00000   1.88496
   A14        2.19911   0.00000   0.00000   0.00000   0.00000   2.19911
   A15        2.19911   0.00000   0.00000   0.00000   0.00000   2.19911
    D1        0.00000   0.00000   0.00000   0.00000   0.00000   0.00000
    D2        3.14159   0.00000   0.00000   0.00000   0.00000   3.14159
    D3        3.14159   0.00000   0.00000   0.00000   0.00000   3.14159
    D4        0.00000   0.00000   0.00000   0.00000   0.00000   0.00000
    D5        0.00000   0.00000   0.00000   0.00000   0.00000   0.00000
    D6        3.14159   0.00000   0.00000   0.00000   0.00000   3.14159
    D7        3.14159   0.00000   0.00000   0.00000   0.00000   3.14159
    D8        0.00000   0.00000   0.00000   0.00000   0.00000   0.00000
    D9        0.00000   0.00000   0.00000   0.00000   0.00000   0.00000
   D10        3.14159   0.00000   0.00000   0.00000   0.00000   3.14159
   D11        3.14159   0.00000   0.00000   0.00000   0.00000   3.14159
   D12        0.00000   0.00000   0.00000   0.00000   0.00000   0.00000
   D13        0.00000   0.00000   0.00000   0.00000   0.00000   0.00000
   D14        3.14159   0.00000   0.00000   0.00000   0.00000   3.14159
   D15        3.14159   0.00000   0.00000   0.00000   0.00000   3.14159
   D16        0.00000   0.00000   0.00000   0.00000   0.00000   0.00000
   D17        0.00000   0.00000   0.00000   0.00000   0.00000   0.00000
   D18        3.14159   0.00000   0.00000   0.00000   0.00000   3.14159
   D19        3.14159   0.00000   0.00000   0.00000   0.00000   3.14159
   D20        0.00000   0.00000   0.00000   0.00000   0.00000   0.00000
         Item               Value     Threshold  Converged?
 Maximum Force            0.018094     0.000450     NO 
 RMS     Force            0.006319     0.000300     NO 
 Maximum Displacement     0.031675     0.001800     NO 
 RMS     Displacement     0.011204     0.001200     NO 
 Predicted change in Energy=-1.476245D-03
 Lowest energy point so far.  Saving SCF results.
 GradGradGradGradGradGradGradGradGradGradGradGradGradGradGradGradGradGrad

 Leave Link  103 at Thu Sep 30 12:28:13 2021, MaxMem=   131072000 cpu:               0.0 elap:               0.0
 (Enter /home/qc/Bg16_b01_x86_64_avx2/g16/l202.exe)
                          Input orientation:                          
 ---------------------------------------------------------------------
 Center     Atomic      Atomic             Coordinates (Angstroms)
 Number     Number       Type             X           Y           Z
 ---------------------------------------------------------------------
      1          6           0       -0.061716    0.000000   -0.044839
      2          6           0       -0.061716    0.000000    1.414903
      3          6           0        1.326582    0.000000    1.865988
      4          6           0        2.184597    0.000000    0.685032
      5          6           0        1.326582    0.000000   -0.495924
      6          1           0        1.660098    0.000000   -1.522381
      7          1           0        3.263877    0.000000    0.685032
      8          1           0        1.660098    0.000000    2.892445
      9          1           0       -0.934872    0.000000    2.049289
     10          1           0       -0.934872    0.000000   -0.679224
 ---------------------------------------------------------------------
                    Distance matrix (angstroms):
                    1          2          3          4          5
     1  C    0.000000
     2  C    1.459742   0.000000
     3  C    2.361913   1.459742   0.000000
     4  C    2.361913   2.361913   1.459742   0.000000
     5  C    1.459742   2.361913   2.361913   1.459742   0.000000
     6  H    2.268870   3.404744   3.404744   2.268870   1.079281
     7  H    3.404744   3.404744   2.268870   1.079281   2.268870
     8  H    3.404744   2.268870   1.079281   2.268870   3.404744
     9  H    2.268870   1.079281   2.268870   3.404744   3.404744
    10  H    1.079281   2.268870   3.404744   3.404744   2.268870
                    6          7          8          9         10
     6  H    0.000000
     7  H    2.728513   0.000000
     8  H    4.414826   2.728513   0.000000
     9  H    4.414826   4.414826   2.728513   0.000000
    10  H    2.728513   4.414826   4.414826   2.728513   0.000000
 Stoichiometry    C5H5(1-)
 Framework group  D5H[5C2(.CH)]
 Deg. of freedom     2
 Full point group                 D5H     NOp  20
 RotChk:  IX=0 Diff= 1.73D-16
 Largest Abelian subgroup         C2V     NOp   4
 Largest concise Abelian subgroup C2      NOp   2
                         Standard orientation:                         
 ---------------------------------------------------------------------
 Center     Atomic      Atomic             Coordinates (Angstroms)
 Number     Number       Type             X           Y           Z
 ---------------------------------------------------------------------
      1          6           0        0.000000    1.241731    0.000000
      2          6           0        1.180956    0.383716    0.000000
      3          6           0        0.729871   -1.004581    0.000000
      4          6           0       -0.729871   -1.004581    0.000000
      5          6           0       -1.180956    0.383716    0.000000
      6          1           0       -2.207413    0.717232    0.000000
      7          1           0       -1.364256   -1.877738    0.000000
      8          1           0        1.364256   -1.877738    0.000000
      9          1           0        2.207413    0.717232    0.000000
     10          1           0        0.000000    2.321012    0.000000
 ---------------------------------------------------------------------
 Rotational constants (GHZ):           8.4469171           8.4469171           4.2234585
 Leave Link  202 at Thu Sep 30 12:28:13 2021, MaxMem=   131072000 cpu:               0.0 elap:               0.0
 (Enter /home/qc/Bg16_b01_x86_64_avx2/g16/l301.exe)

 Semi-emprical parameters in input format:
 Method=40 CoreType=2 PeptideFC=0.0000000000 RIJScale=0.0000000000 PM6R6=0.0000124488
 PM6R12=0.0000007621 ExpSw=0 CofSw=0.0000000000 R0Sw=0.0000000000 XabDefault=10.0000000000
 AabDefault=1.1536063198 PM7OH3=0.0000000000 PM7OH4=0.0000000000 PM6HCC=3674.9303600697
 ****
 H       
 PQN=1,0,0,0 NValence=1 F0ss=0.5032815131 F0sp=0.0000000000 F0pp=0.0000000000
 F0sd=0.0000000000 F0pd=0.0000000000 F0dd=0.0000000000 F2pp=0.0000000000 F2pd=0.0000000000
 F2dd=0.0000000000 F4dd=0.0000000000 G1sp=0.0000000000 G1pd=0.0000000000 G2sd=0.0000000000
 G3pd=0.0000000000 Rsppd=0.0000000000 Rsdpp=0.0000000000 Rsddd=0.0000000000
 ZetaOverlap=1.3463838844,0.0000000000,0.0000000000,0.0000000000
 Zeta1C=0.0000000000,0.0000000000,0.0000000000,0.0000000000
 U=-0.4742261814,0.0000000000,0.0000000000,0.0000000000
 Beta=-0.4668995543,0.0000000000,0.0000000000,0.0000000000 DDN=0,0,0.0000000000
 DDN=0,1,0.0000000000 DDN=1,1,0.0000000000 DDN=0,2,0.0000000000 DDN=1,2,0.0000000000
 DDN=2,2,0.0000000000 DDN=0,3,0.0000000000 DDN=1,3,0.0000000000 DDN=2,3,0.0000000000
 DDN=3,3,0.0000000000 CoreKO=0.7758606914 KON=0,0,0,0.9934797663 KON=1,0,0,0.0000000000
 KON=2,0,0,0.0000000000 KON=3,0,0,0.0000000000 KON=0,0,1,0.0000000000 KON=1,0,1,0.0000000000
 KON=2,0,1,0.0000000000 KON=3,0,1,0.0000000000 KON=0,1,1,0.0000000000 KON=1,1,1,0.0000000000
 KON=2,1,1,0.0000000000 KON=3,1,1,0.0000000000 KON=0,0,2,0.0000000000 KON=1,0,2,0.0000000000
 KON=2,0,2,0.0000000000 KON=3,0,2,0.0000000000 KON=0,1,2,0.0000000000 KON=1,1,2,0.0000000000
 KON=2,1,2,0.0000000000 KON=3,1,2,0.0000000000 KON=0,2,2,0.0000000000 KON=1,2,2,0.0000000000
 KON=2,2,2,0.0000000000 KON=3,2,2,0.0000000000 KON=0,0,3,0.0000000000 KON=1,0,3,0.0000000000
 KON=2,0,3,0.0000000000 KON=3,0,3,0.0000000000 KON=0,1,3,0.0000000000 KON=1,1,3,0.0000000000
 KON=2,1,3,0.0000000000 KON=3,1,3,0.0000000000 KON=0,2,3,0.0000000000 KON=1,2,3,0.0000000000
 KON=2,2,3,0.0000000000 KON=3,2,3,0.0000000000 KON=0,3,3,0.0000000000 KON=1,3,3,0.0000000000
 KON=2,3,3,0.0000000000 KON=3,3,3,0.0000000000 EISol=-0.4742261814 EHeat=0.0830298221
 Alpha=0.0000000000 DipHyp=0.0000000000
 GCore=-0.0119162797,0.8775921519,3.3643669281 DCore=1,3,1.8737858116,2.2435870000,0.0000000000,0.0000000000,0.0000000000
 ****
 C       
 PQN=2,2,0,0 NValence=4 F0ss=0.4184175168 F0sp=0.3620114552 F0pp=0.5405148012
 F0sd=0.0000000000 F0pd=0.0000000000 F0dd=0.0000000000 F2pp=0.6778458555 F2pd=0.0000000000
 F2dd=0.0000000000 F4dd=0.0000000000 G1sp=0.1211343170 G1pd=0.0000000000 G2sd=0.0000000000
 G3pd=0.0000000000 Rsppd=0.0000000000 Rsdpp=0.0000000000 Rsddd=0.0000000000
 ZetaOverlap=1.8286852822,1.5061691258,0.0000000000,0.0000000000
 Zeta1C=0.0000000000,0.0000000000,0.0000000000,0.0000000000
 U=-1.5480887492,-1.6936981163,0.0000000000,0.0000000000
 Beta=-0.1456835353,-0.3790279656,0.0000000000,0.0000000000 DDN=0,0,0.0000000000
 DDN=0,1,0.8455316356 DDN=1,1,0.8131522884 DDN=0,2,0.0000000000 DDN=1,2,0.0000000000
 DDN=2,2,0.0000000000 DDN=0,3,0.0000000000 DDN=1,3,0.0000000000 DDN=2,3,0.0000000000
 DDN=3,3,0.0000000000 CoreKO=1.2740393308 KON=0,0,0,1.1949786515 KON=1,0,0,0.0000000000
 KON=2,0,0,0.0000000000 KON=3,0,0,0.0000000000 KON=0,0,1,0.0000000000 KON=1,0,1,1.1713187703
 KON=2,0,1,0.0000000000 KON=3,0,1,0.0000000000 KON=0,1,1,1.1949786515 KON=1,1,1,0.0000000000
 KON=2,1,1,0.5173707381 KON=3,1,1,0.0000000000 KON=0,0,2,0.0000000000 KON=1,0,2,0.0000000000
 KON=2,0,2,0.0000000000 KON=3,0,2,0.0000000000 KON=0,1,2,0.0000000000 KON=1,1,2,0.0000000000
 KON=2,1,2,0.0000000000 KON=3,1,2,0.0000000000 KON=0,2,2,0.0000000000 KON=1,2,2,0.0000000000
 KON=2,2,2,0.0000000000 KON=3,2,2,0.0000000000 KON=0,0,3,0.0000000000 KON=1,0,3,0.0000000000
 KON=2,0,3,0.0000000000 KON=3,0,3,0.0000000000 KON=0,1,3,0.0000000000 KON=1,1,3,0.0000000000
 KON=2,1,3,0.0000000000 KON=3,1,3,0.0000000000 KON=0,2,3,0.0000000000 KON=1,2,3,0.0000000000
 KON=2,2,3,0.0000000000 KON=3,2,3,0.0000000000 KON=0,3,3,0.0000000000 KON=1,3,3,0.0000000000
 KON=2,3,3,0.0000000000 KON=3,3,3,0.0000000000 EISol=-4.2929209746 EHeat=0.2723305496
 Alpha=0.0000000000 DipHyp=1.6909658931
 GCore=0.0105311240,0.6127683039,2.6057930524 DCore=1,4,0.2878149936,0.2165060000,0.0000000000,0.0000000000,0.0000000000
 DCore=2,3,1.6101301456,3.2139710000,0.0000000000,0.0000000000,0.0000000000
 DCore=3,3,1.7155258415,16.1800020000,0.0000000000,0.0000000000,0.0000000000
 DCore=4,3,2.2293611467,25.0358790000,0.0000000000,0.0000000000,0.0000000000
 DCore=5,3,1.5446719829,1.8748590000,0.0000000000,0.0000000000,0.0000000000
 DCore=6,5,1.3831173555,0.8135100000,3.1644797213,9.2800000000,0.0000000000
 ****
 
 Standard basis: VSTO-6G (5D, 7F)
 Ernie: Thresh=  0.10000D-02 Tol=  0.10000D-05 Strict=F.
  NNHCO=     0 NNPyr=     0 NCTC=     0               EPep=         0.000000000
    EC=        59.643680934  ECS=         1.759052008   EG=         0.670884151
   EHC=         0.000288183  EAt=       -23.835735780  AtH=         1.776801858
 EPDDG=         0.000000000  ECC=        62.073905276 EAtT=        25.612537638
 There are    11 symmetry adapted cartesian basis functions of A1  symmetry.
 There are     2 symmetry adapted cartesian basis functions of A2  symmetry.
 There are     9 symmetry adapted cartesian basis functions of B1  symmetry.
 There are     3 symmetry adapted cartesian basis functions of B2  symmetry.
 There are    11 symmetry adapted basis functions of A1  symmetry.
 There are     2 symmetry adapted basis functions of A2  symmetry.
 There are     9 symmetry adapted basis functions of B1  symmetry.
 There are     3 symmetry adapted basis functions of B2  symmetry.
    25 basis functions,   150 primitive gaussians,    25 cartesian basis functions
    13 alpha electrons       13 beta electrons
       nuclear repulsion energy        87.6864429146 Hartrees.
 IExCor=    0 DFT=F Ex=HF Corr=None ExCW=0 ScaHFX=  1.000000
 ScaDFX=  1.000000  1.000000  1.000000  1.000000 ScalE2=  1.000000  1.000000
 IRadAn=      5 IRanWt=     -1 IRanGd=            0 ICorTp=0 IEmpDi=  4
 Integral buffers will be    131072 words long.
 Regular integral format.
 Two-electron integral symmetry is turned off.
 Leave Link  301 at Thu Sep 30 12:28:13 2021, MaxMem=   131072000 cpu:               0.1 elap:               0.1
 (Enter /home/qc/Bg16_b01_x86_64_avx2/g16/l302.exe)
 Do NDO integrals.
 NPDir=0 NMtPBC=     1 NCelOv=     1 NCel=       1 NClECP=     1 NCelD=      1
         NCelK=      1 NCelE2=     1 NClLst=     1 CellRange=     0.0.
 One-electron integrals computed using PRISM.
 NBasis=    25 RedAO= T EigKep=  1.00D+00  NBF=    11     2     9     3
 NBsUse=    25 1.00D-06 EigRej= -1.00D+00 NBFU=    11     2     9     3
 Leave Link  302 at Thu Sep 30 12:28:13 2021, MaxMem=   131072000 cpu:               0.1 elap:               0.1
 (Enter /home/qc/Bg16_b01_x86_64_avx2/g16/l303.exe)
 DipDrv:  MaxL=1.
 Leave Link  303 at Thu Sep 30 12:28:13 2021, MaxMem=   131072000 cpu:               0.0 elap:               0.0
 (Enter /home/qc/Bg16_b01_x86_64_avx2/g16/l401.exe)
 Initial guess from the checkpoint file:  "//scratch/brent/opt_2021-09-30_12_28_02/Gau-23259.chk"
 B after Tr=     0.000000    0.000000    0.000000
         Rot=    1.000000    0.000000    0.000000    0.000000 Ang=   0.00 deg.
 Guess basis will be translated and rotated to current coordinates.
 JPrj=0 DoOrth=T DoCkMO=T.
 Initial guess orbital symmetries:
       Occupied  (A1') (E1') (E1') (E2') (E2') (A1') (A2") (E2')
                 (E2') (E1') (E1') (E1") (E1")
       Virtual   (E2') (E2') (E1') (E1') (E2") (E2") (A1') (E1')
                 (E1') (A2') (E2') (E2')
 The electronic state of the initial guess is 1-A1'.
 Leave Link  401 at Thu Sep 30 12:28:13 2021, MaxMem=   131072000 cpu:               0.1 elap:               0.1
 (Enter /home/qc/Bg16_b01_x86_64_avx2/g16/l502.exe)
 Keep J ints in memory in canonical form, NReq=860810.
 FoFCou: FMM=F IPFlag=           0 FMFlag=           0 FMFlg1=           0
         NFxFlg=           0 DoJE=F BraDBF=F KetDBF=F FulRan=T
         wScrn=  0.000000 ICntrl=       600 IOpCl=  2 I1Cent=           0 NGrid=           0
         NMat0=    1 NMatS0=     55 NMatT0=    0 NMatD0=    1 NMtDS0=    0 NMtDT0=    0
 Symmetry not used in FoFCou.
 Two-electron integral symmetry not used.
 Closed shell SCF:
 Using DIIS extrapolation, IDIIS=  1040.
 Overlap will be assumed to be unity.
 NGot=   131072000 LenX=   131009591 LenY=   131008525
 Requested convergence on RMS density matrix=1.00D-08 within 128 cycles.
 Requested convergence on MAX density matrix=1.00D-06.
 Requested convergence on             energy=1.00D-06.
 No special actions if energy rises.
 An orbital has undefined symmetry, so N**3 symmetry is turned off.

 Cycle   1  Pass 1  IDiag  1:
[...]
     16  0.670356D-01
     17  0.000000D+00  0.700220D-02
     18 -0.966287D-01  0.000000D+00  0.333032D+00
     19  0.949353D-03  0.000000D+00  0.130738D-02  0.364428D+00
     20  0.000000D+00  0.144411D-03  0.000000D+00  0.000000D+00  0.700220D-02
     21  0.809346D-03  0.000000D+00  0.163713D-02  0.000000D+00  0.000000D+00
     22  0.144541D-02  0.000000D+00  0.108512D-02  0.949361D-03  0.000000D+00
     23  0.000000D+00  0.414646D-02  0.000000D+00  0.000000D+00  0.144411D-03
     24 -0.108513D-02  0.000000D+00 -0.982992D-03 -0.130738D-02  0.000000D+00
     25  0.606419D-03  0.000000D+00  0.696515D-04 -0.751107D-03  0.000000D+00
     26  0.000000D+00  0.414646D-02  0.000000D+00  0.000000D+00  0.414646D-02
     27  0.223989D-02  0.000000D+00 -0.143995D-03 -0.371441D-03  0.000000D+00
     28  0.219354D-02  0.000000D+00 -0.903119D-03 -0.751102D-03  0.000000D+00
     29  0.000000D+00  0.144411D-03  0.000000D+00  0.000000D+00  0.414646D-02
     30 -0.405085D-03  0.000000D+00  0.392939D-03  0.371437D-03  0.000000D+00
               21            22            23            24            25 
     21  0.356390D-01
     22 -0.809349D-03  0.670356D-01
     23  0.000000D+00  0.000000D+00  0.700220D-02
     24  0.163712D-02  0.966288D-01  0.000000D+00  0.333032D+00
     25  0.179882D-02  0.219353D-02  0.000000D+00  0.903120D-03  0.250834D+00
     26  0.000000D+00  0.000000D+00  0.144411D-03  0.000000D+00  0.000000D+00
     27  0.121351D-02  0.405090D-03  0.000000D+00  0.392936D-03 -0.156349D+00
     28 -0.179881D-02  0.606414D-03  0.000000D+00 -0.696483D-04  0.180415D-03
     29  0.000000D+00  0.000000D+00  0.414646D-02  0.000000D+00  0.000000D+00
     30  0.121352D-02 -0.223990D-02  0.000000D+00 -0.143999D-03 -0.249019D-03
               26            27            28            29            30 
     26  0.700220D-02
     27  0.000000D+00  0.149233D+00
     28  0.000000D+00  0.249019D-03  0.250834D+00
     29  0.144411D-03  0.000000D+00  0.000000D+00  0.700220D-02
     30  0.000000D+00  0.240608D-02  0.156349D+00  0.000000D+00  0.149233D+00
 FormGI is forming the generalized inverse of G from B-inverse, IUseBI=4.
 Leave Link  716 at Thu Sep 30 12:28:19 2021, MaxMem=   131072000 cpu:               0.0 elap:               0.0
 (Enter /home/qc/Bg16_b01_x86_64_avx2/g16/l103.exe)

 GradGradGradGradGradGradGradGradGradGradGradGradGradGradGradGradGradGrad
 Berny optimization.
 Red2BG is reusing G-inverse.
 Internal  Forces:  Max     0.000080430 RMS     0.000026858
 Search for a local minimum.
 Step number   1 out of a maximum of    2
 All quantities printed in internal units (Hartrees-Bohrs-Radians)
 Second derivative matrix not updated -- analytic derivatives used.
 ITU=  0
     Eigenvalues ---   -0.00843  -0.00843   0.00028   0.00028   0.02125
     Eigenvalues ---    0.03737   0.03737   0.05756   0.05756   0.07116
     Eigenvalues ---    0.08207   0.08207   0.14548   0.14548   0.25110
     Eigenvalues ---    0.25110   0.27219   0.27219   0.36289   0.36421
     Eigenvalues ---    0.36421   0.37304   0.37304   0.46835
 Eigenvalue     1 is  -8.43D-03 should be greater than     0.000000 Eigenvector:
                          D16       D12       D20       D13       D9
   1                    0.50470  -0.45536  -0.36126  -0.27836   0.25115
                          D4        D17       D19       D2        D10
   1                    0.23208   0.19925  -0.17210   0.16679  -0.16056
 Eigenvalue     2 is  -8.43D-03 should be greater than     0.000000 Eigenvector:
                          D8        D4        D20       D5        D1
   1                    0.50473  -0.45526  -0.36141  -0.27838   0.25110
                          D12       D17       D18       D11       D3
   1                    0.23190   0.19933  -0.17210   0.16678  -0.16058
 Angle between quadratic step and forces=   1.57 degrees.
 Linear search not attempted -- first point.
 Iteration  1 RMS(Cart)=  0.00007582 RMS(Int)=  0.00000000
 Iteration  2 RMS(Cart)=  0.00000000 RMS(Int)=  0.00000000
 ITry= 1 IFail=0 DXMaxC= 2.27D-04 DCOld= 1.00D+10 DXMaxT= 3.00D-01 DXLimC= 3.00D+00 Rises=F
 ClnCor:  largest displacement from symmetrization is 4.23D-10 for atom     3.
 Variable       Old X    -DE/DX   Delta X   Delta X   Delta X     New X
                                 (Linear)    (Quad)   (Total)
    R1        2.75823   0.00000   0.00000  -0.00001  -0.00001   2.75822
    R2        2.75823   0.00000   0.00000  -0.00001  -0.00001   2.75822
    R3        2.04374  -0.00008   0.00000  -0.00022  -0.00022   2.04352
    R4        2.75823   0.00000   0.00000  -0.00001  -0.00001   2.75822
    R5        2.04374  -0.00008   0.00000  -0.00022  -0.00022   2.04352
    R6        2.75823   0.00000   0.00000  -0.00001  -0.00001   2.75822
    R7        2.04374  -0.00008   0.00000  -0.00022  -0.00022   2.04352
    R8        2.75823   0.00000   0.00000  -0.00001  -0.00001   2.75822
    R9        2.04374  -0.00008   0.00000  -0.00022  -0.00022   2.04352
   R10        2.04374  -0.00008   0.00000  -0.00022  -0.00022   2.04352
    A1        1.88496   0.00000   0.00000   0.00000   0.00000   1.88496
    A2        2.19911   0.00000   0.00000   0.00000   0.00000   2.19911
    A3        2.19911   0.00000   0.00000   0.00000   0.00000   2.19911
    A4        1.88496   0.00000   0.00000   0.00000   0.00000   1.88496
    A5        2.19911   0.00000   0.00000   0.00000   0.00000   2.19911
    A6        2.19911   0.00000   0.00000   0.00000   0.00000   2.19911
    A7        1.88496   0.00000   0.00000   0.00000   0.00000   1.88496
    A8        2.19911   0.00000   0.00000   0.00000   0.00000   2.19911
    A9        2.19911   0.00000   0.00000   0.00000   0.00000   2.19911
   A10        1.88496   0.00000   0.00000   0.00000   0.00000   1.88496
   A11        2.19911   0.00000   0.00000   0.00000   0.00000   2.19911
   A12        2.19911   0.00000   0.00000   0.00000   0.00000   2.19911
   A13        1.88496   0.00000   0.00000   0.00000   0.00000   1.88496
   A14        2.19911   0.00000   0.00000   0.00000   0.00000   2.19911
   A15        2.19911   0.00000   0.00000   0.00000   0.00000   2.19911
    D1        0.00000   0.00000   0.00000   0.00000   0.00000   0.00000
    D2        3.14159   0.00000   0.00000   0.00000   0.00000   3.14159
    D3        3.14159   0.00000   0.00000   0.00000   0.00000   3.14159
    D4        0.00000   0.00000   0.00000   0.00000   0.00000   0.00000
    D5        0.00000   0.00000   0.00000   0.00000   0.00000   0.00000
    D6        3.14159   0.00000   0.00000   0.00000   0.00000   3.14159
    D7        3.14159   0.00000   0.00000   0.00000   0.00000   3.14159
    D8        0.00000   0.00000   0.00000   0.00000   0.00000   0.00000
    D9        0.00000   0.00000   0.00000   0.00000   0.00000   0.00000
   D10        3.14159   0.00000   0.00000   0.00000   0.00000   3.14159
   D11        3.14159   0.00000   0.00000   0.00000   0.00000   3.14159
   D12        0.00000   0.00000   0.00000   0.00000   0.00000   0.00000
   D13        0.00000   0.00000   0.00000   0.00000   0.00000   0.00000
   D14        3.14159   0.00000   0.00000   0.00000   0.00000   3.14159
   D15        3.14159   0.00000   0.00000   0.00000   0.00000   3.14159
   D16        0.00000   0.00000   0.00000   0.00000   0.00000   0.00000
   D17        0.00000   0.00000   0.00000   0.00000   0.00000   0.00000
   D18        3.14159   0.00000   0.00000   0.00000   0.00000   3.14159
   D19        3.14159   0.00000   0.00000   0.00000   0.00000   3.14159
   D20        0.00000   0.00000   0.00000   0.00000   0.00000   0.00000
         Item               Value     Threshold  Converged?
 Maximum Force            0.000080     0.000450     YES
 RMS     Force            0.000027     0.000300     YES
 Maximum Displacement     0.000227     0.001800     YES
 RMS     Displacement     0.000076     0.001200     YES
 Predicted change in Energy=-4.457475D-08
 Optimization completed.
    -- Stationary point found.
                           ----------------------------
                           !   Optimized Parameters   !
                           ! (Angstroms and Degrees)  !
 --------------------------                            --------------------------
 ! Name  Definition              Value          Derivative Info.                !
 --------------------------------------------------------------------------------
 ! R1    R(1,2)                  1.4596         -DE/DX =    0.0                 !
 ! R2    R(1,5)                  1.4596         -DE/DX =    0.0                 !
 ! R3    R(1,10)                 1.0815         -DE/DX =   -0.0001              !
 ! R4    R(2,3)                  1.4596         -DE/DX =    0.0                 !
 ! R5    R(2,9)                  1.0815         -DE/DX =   -0.0001              !
 ! R6    R(3,4)                  1.4596         -DE/DX =    0.0                 !
 ! R7    R(3,8)                  1.0815         -DE/DX =   -0.0001              !
 ! R8    R(4,5)                  1.4596         -DE/DX =    0.0                 !
 ! R9    R(4,7)                  1.0815         -DE/DX =   -0.0001              !
 ! R10   R(5,6)                  1.0815         -DE/DX =   -0.0001              !
 ! A1    A(2,1,5)              108.0            -DE/DX =    0.0                 !
 ! A2    A(2,1,10)             126.0            -DE/DX =    0.0                 !
 ! A3    A(5,1,10)             126.0            -DE/DX =    0.0                 !
 ! A4    A(1,2,3)              108.0            -DE/DX =    0.0                 !
 ! A5    A(1,2,9)              126.0            -DE/DX =    0.0                 !
 ! A6    A(3,2,9)              126.0            -DE/DX =    0.0                 !
 ! A7    A(2,3,4)              108.0            -DE/DX =    0.0                 !
 ! A8    A(2,3,8)              126.0            -DE/DX =    0.0                 !
 ! A9    A(4,3,8)              126.0            -DE/DX =    0.0                 !
 ! A10   A(3,4,5)              108.0            -DE/DX =    0.0                 !
 ! A11   A(3,4,7)              126.0            -DE/DX =    0.0                 !
 ! A12   A(5,4,7)              126.0            -DE/DX =    0.0                 !
 ! A13   A(1,5,4)              108.0            -DE/DX =    0.0                 !
 ! A14   A(1,5,6)              126.0            -DE/DX =    0.0                 !
 ! A15   A(4,5,6)              126.0            -DE/DX =    0.0                 !
 ! D1    D(5,1,2,3)              0.0            -DE/DX =    0.0                 !
 ! D2    D(5,1,2,9)            180.0            -DE/DX =    0.0                 !
 ! D3    D(10,1,2,3)           180.0            -DE/DX =    0.0                 !
 ! D4    D(10,1,2,9)             0.0            -DE/DX =    0.0                 !
 ! D5    D(2,1,5,4)              0.0            -DE/DX =    0.0                 !
 ! D6    D(2,1,5,6)            180.0            -DE/DX =    0.0                 !
 ! D7    D(10,1,5,4)           180.0            -DE/DX =    0.0                 !
 ! D8    D(10,1,5,6)             0.0            -DE/DX =    0.0                 !
 ! D9    D(1,2,3,4)              0.0            -DE/DX =    0.0                 !
 ! D10   D(1,2,3,8)            180.0            -DE/DX =    0.0                 !
 ! D11   D(9,2,3,4)            180.0            -DE/DX =    0.0                 !
 ! D12   D(9,2,3,8)              0.0            -DE/DX =    0.0                 !
 ! D13   D(2,3,4,5)              0.0            -DE/DX =    0.0                 !
 ! D14   D(2,3,4,7)            180.0            -DE/DX =    0.0                 !
 ! D15   D(8,3,4,5)            180.0            -DE/DX =    0.0                 !
 ! D16   D(8,3,4,7)              0.0            -DE/DX =    0.0                 !
 ! D17   D(3,4,5,1)              0.0            -DE/DX =    0.0                 !
 ! D18   D(3,4,5,6)            180.0            -DE/DX =    0.0                 !
 ! D19   D(7,4,5,1)            180.0            -DE/DX =    0.0                 !
 ! D20   D(7,4,5,6)              0.0            -DE/DX =    0.0                 !
 --------------------------------------------------------------------------------
 GradGradGradGradGradGradGradGradGradGradGradGradGradGradGradGradGradGrad

 Leave Link  103 at Thu Sep 30 12:28:19 2021, MaxMem=   131072000 cpu:               0.0 elap:               0.0
 (Enter /home/qc/Bg16_b01_x86_64_avx2/g16/l9999.exe)
 Dipole is zero, so no output in dipole orientation.

 ----------------------------------------------------------------------

 Electric dipole moment (input orientation):
 (Debye = 10**-18 statcoulomb cm , SI units = C m)
                  (au)            (Debye)         (10**-30 SI)
   Tot        0.000000D+00      0.000000D+00      0.000000D+00
   x          0.000000D+00      0.000000D+00      0.000000D+00
   y          0.000000D+00      0.000000D+00      0.000000D+00
   z          0.000000D+00      0.000000D+00      0.000000D+00

 Dipole polarizability, Alpha (input orientation).
 (esu units = cm**3 , SI units = C**2 m**2 J**-1)
 Alpha(0;0):
               (au)            (10**-24 esu)      (10**-40 SI)
   iso        0.329963D+02      0.488955D+01      0.544036D+01
   aniso      0.300603D+02      0.445447D+01      0.495627D+01
   xx         0.430164D+02      0.637437D+01      0.709245D+01
   yx         0.000000D+00      0.000000D+00      0.000000D+00
   yy         0.129561D+02      0.191990D+01      0.213617D+01
   zx         0.000000D+00      0.000000D+00      0.000000D+00
   zy         0.000000D+00      0.000000D+00      0.000000D+00
   zz         0.430164D+02      0.637437D+01      0.709245D+01

 ----------------------------------------------------------------------
 1\1\GINC-NODE20\Freq\RPM6\ZDO\C5H5(1-)\BRENT\30-Sep-2021\0\\#P Geom=Al
 lCheck Guess=TCheck SCRF=Check GenChk RPM6/ZDO Freq\\the title\\-1,1\C
 ,-0.0616131218,0.,-0.0447645533\C,-0.0616131218,0.,1.4148288533\C,1.32
 65426986,0.,1.8658680208\C,2.1844701774,0.,0.68503215\C,1.3265426986,0
 .,-0.4958037208\H,1.6607449202,0.,-1.5243723962\H,3.2659712846,0.,0.68
 503215\H,1.6607449202,0.,2.8944366962\H,-0.936565897,0.,2.0505192544\H
 ,-0.936565897,0.,-0.6804549544\\Version=ES64L-G16RevB.01\State=1-A1'\H
 F=-0.1699391\RMSD=7.894e-11\RMSF=4.483e-05\ZeroPoint=0.0687819\Thermal
 =0.0739689\Dipole=0.,0.,0.\DipoleDeriv=-0.1427049,0.,-0.2918497,0.,-0.
 2681215,0.,-0.2918497,0.,0.0469505,-0.1427049,0.,0.2918497,0.,-0.26812
 15,0.,0.2918497,0.,0.0469505,0.200385,0.,-0.180373,0.,-0.2681215,0.,-0
 .180373,0.,-0.2961394,-0.3547461,0.,0.,0.,-0.2681215,0.,0.,0.,0.258991
 7,0.200385,0.,0.180373,0.,-0.2681215,0.,0.180373,0.,-0.2961394,-0.0919
 2,0.,0.0437395,0.,0.0681225,0.,0.0437397,0.,-0.212325,-0.2265369,0.,0.
 ,0.,0.0681225,0.,0.0000001,0.,-0.0777082,-0.0919201,0.,-0.0437398,0.,0
 .0681225,0.,-0.0437396,0.,-0.212325,-0.1751179,0.,0.0707724,0.,0.06812
 25,0.,0.0707722,0.,-0.1291272,-0.1751179,0.,-0.0707724,0.,0.0681225,0.
 ,-0.0707722,0.,-0.1291272\Polar=43.0163923,0.,12.9561162,0.,0.,43.0163
 923\HyperPolar=0.,0.,0.,0.,0.,0.,0.,0.,0.,0.\PG=D05H [5C2(.C1H1)]\NIma
 g=2\\0.57914831,0.,-0.01888339,0.19285127,0.,0.45382595,-0.06623841,0.
 ,0.04488185,0.57914831,0.,0.02147123,0.,0.,-0.01888339,-0.04488185,0.,
 -0.17585018,-0.19285127,0.,0.45382595,-0.01631523,0.,-0.08321444,-0.16
 538319,0.,0.01266776,0.35243804,0.,-0.00423695,0.,0.,0.02147123,0.,0.,
 -0.01888339,-0.03584764,0.,-0.05500084,-0.07709594,0.,-0.07670540,0.11
 918864,0.,0.68053622,-0.08629816,0.,-0.01310880,-0.08629816,0.,0.01310
 881,-0.10410834,0.,0.09700534,0.71926296,0.,-0.00423695,0.,0.,-0.00423
 695,0.,0.,0.02147123,0.,0.,-0.01888339,-0.06047560,0.,0.01498209,0.060
 47560,0.,0.01498209,0.00724165,0.,-0.13798024,0.,0.,0.31371131,-0.1653
 8319,0.,-0.01266776,-0.01631523,0.,0.08321444,0.02693660,0.,-0.0236834
 0,-0.10410834,0.,-0.00724165,0.35243804,0.,0.02147123,0.,0.,-0.0042369
 5,0.,0.,-0.00423695,0.,0.,0.02147123,0.,0.,-0.01888339,0.07709594,0.,-
 0.07670540,0.03584764,0.,-0.05500084,0.02368340,0.,-0.09825267,-0.0970
 0534,0.,-0.13798024,-0.11918864,0.,0.68053622,-0.00224858,0.,0.0228754
 7,-0.00684034,0.,-0.00043305,-0.00473308,0.,-0.00286107,0.00667931,0.,
 -0.01484056,-0.06508759,0.,0.09032893,0.06703561,0.,-0.01729709,0.,0.,
 0.00248751,0.,0.,0.00248751,0.,0.,-0.01729709,0.,0.,0.01403460,0.,0.,0
 .00700220,-0.00255236,0.,-0.00437979,0.00003934,0.,-0.00019911,-0.0033
 3347,0.,-0.00230639,0.01058728,0.,-0.01330764,0.09032892,0.,-0.3137418
 3,-0.09662873,0.,0.33303174,-0.00071758,0.,-0.00202875,-0.00071759,0.,
 0.00202876,-0.01014905,0.,-0.00511941,-0.34309148,0.,0.00000002,-0.010
 14909,0.,0.00511939,0.00094935,0.,0.00130738,0.36442831,0.,0.00248751,
 0.,0.,0.00248751,0.,0.,-0.01729709,0.,0.,0.01403460,0.,0.,-0.01729709,
 0.,0.,0.00014441,0.,0.,0.00700220,-0.00155635,0.,-0.00632187,0.0015563
 6,0.,-0.00632188,0.02030843,0.,0.00352072,0.,0.,-0.03573794,-0.0203084
 4,0.,0.00352072,0.00080935,0.,0.00163713,-0.00000002,0.,0.03563904,-0.
 00684035,0.,0.00043305,-0.00224857,0.,-0.02287545,-0.06508760,0.,-0.09
 032894,0.00667932,0.,0.01484056,-0.00473307,0.,0.00286106,0.00144541,0
 .,0.00108512,0.00094936,0.,-0.00080935,0.06703563,0.,0.00248751,0.,0.,
 -0.01729709,0.,0.,0.01403460,0.,0.,-0.01729709,0.,0.,0.00248751,0.,0.,
 0.00414646,0.,0.,0.00014441,0.,0.,0.00700220,-0.00003935,0.,-0.0001991
 2,0.00255239,0.,-0.00437977,-0.09032896,0.,-0.31374182,-0.01058727,0.,
 -0.01330769,0.00333346,0.,-0.00230637,-0.00108513,0.,-0.00098299,-0.00
 130738,0.,0.00163712,0.09662876,0.,0.33303172,0.00179653,0.,-0.0038667
 0,-0.23690346,0.,0.14615528,-0.01264907,0.,0.01686745,-0.00435865,0.,-
 0.00345513,-0.00094900,0.,-0.00187487,0.00060642,0.,0.00006965,-0.0007
 5111,0.,0.00179882,0.00219353,0.,0.00090312,0.25083443,0.,-0.01729709,
 0.,0.,0.01403460,0.,0.,-0.01729709,0.,0.,0.00248751,0.,0.,0.00248751,0
 .,0.,0.00414646,0.,0.,0.00414646,0.,0.,0.00014441,0.,0.,0.00700220,0.0
 2156113,0.,-0.00842491,0.14615529,0.,-0.14192596,-0.00856039,0.,0.0060
 2073,-0.00298272,0.,-0.00268082,-0.00234727,0.,-0.00609045,0.00223989,
 0.,-0.00014400,-0.00037144,0.,0.00121351,0.00040509,0.,0.00039294,-0.1
 5634859,0.,0.14923292,-0.23690346,0.,-0.14615528,0.00179653,0.,0.00386
 670,-0.00094900,0.,0.00187487,-0.00435865,0.,0.00345513,-0.01264907,0.
 ,-0.01686745,0.00219354,0.,-0.00090312,-0.00075110,0.,-0.00179881,0.00
 060641,0.,-0.00006965,0.00018041,0.,0.00024902,0.25083443,0.,0.0140346
 0,0.,0.,-0.01729709,0.,0.,0.00248751,0.,0.,0.00248751,0.,0.,-0.0172970
 9,0.,0.,0.00014441,0.,0.,0.00414646,0.,0.,0.00414646,0.,0.,0.00014441,
 0.,0.,0.00700220,-0.14615529,0.,-0.14192596,-0.02156113,0.,-0.00842491
 ,0.00234727,0.,-0.00609045,0.00298272,0.,-0.00268082,0.00856039,0.,0.0
 0602073,-0.00040509,0.,0.00039294,0.00037144,0.,0.00121352,-0.00223990
 ,0.,-0.00014400,-0.00024902,0.,0.00240608,0.15634859,0.,0.14923292\\0.
 00006048,0.,0.00004394,0.00006048,0.,-0.00004394,-0.00002310,0.,-0.000
 07110,-0.00007476,0.,0.,-0.00002310,0.,0.00007110,0.00002485,0.,-0.000
 07649,0.00008043,0.,0.,0.00002485,0.,0.00007649,-0.00006507,0.,0.00004
 728,-0.00006507,0.,-0.00004728\\\@


 TOM, TOM, THE BURGLAR'S SON
 STOLE A MACHINE AND AWAY HE RUN
 THE JOB WAS NEAT, BUT TOM GOT BEAT
 BY THE TIME HE GOT HOME IT WAS OBSOLETE.
 Job cpu time:       0 days  0 hours  0 minutes  1.2 seconds.
 Elapsed time:       0 days  0 hours  0 minutes  1.3 seconds.
 File lengths (MBytes):  RWF=      6 Int=      0 D2E=      0 Chk=      2 Scr=      1
 Normal termination of Gaussian 16 at Thu Sep 30 12:28:19 2021.
 
 
-----JOB STATISTICS FROM G09 SCRIPT----
--Machine Info--
Linux node20 4.12.14-lp150.12.82-default x86_64 x86_64
 
--Timing  Info--
    1.122u 2.976s 0:16.93 24.1% 0+0k 3033440+21376io 102pf+0w
 
--FileSys Info--
Filesystem      Size  Used Avail Use% Mounted on
/dev/sda9       785G   24G  722G   4% /scratch
Filesystem      Size  Used Avail Use% Mounted on
master:/home    7.1T  638G  6.5T   9% /home
total 8
-rw-r--r-- 1 brent root 331 Sep 30 12:28 opt.com
-rw-r--r-- 1 brent root  31 Sep 30 12:28 workdir.txt
