 Entering Gaussian System, Link 0=/home/qc/Bg16_b01_x86_64_avx2/g16/g16
 AtFile(1): /home/brent/semp/opt_test/params.dat
             ****
             H
            F0ss=0.5032815131
            ZetaOverlap=1.3463838844
            U=-0.4742261814
            Beta=-0.4668995543
            CoreKO=0.7758606914
            GCore=-0.0119162797,0.8775921519,3.3643669281
             ****
             C
            F0ss=0.4184175168
            F0sp=0.3620114552
            F0pp=0.5405148012
            F2pp=0.6778458555
            G1sp=0.1211343170
            ZetaOverlap=1.8286852822,1.5061691258
            U=-1.5480887492,-1.6936981163
            Beta=-0.1456835353,-0.3790279656
            CoreKO=1.2740393308
            GCore=0.0105311240,0.6127683039,2.6057930524
             ****
            
 Initial command:
 /home/qc/Bg16_b01_x86_64_avx2/g16/l1.exe "//scratch/brent/opt_2021-09-29_16_03_49/Gau-168291.inp" -scrdir="//scratch/brent/opt_2021-09-29_16_03_49/"
 Entering Link 1 = /home/qc/Bg16_b01_x86_64_avx2/g16/l1.exe PID=    168292.
  
 Copyright (c) 1988-2017, Gaussian, Inc.  All Rights Reserved.
  
 This is part of the Gaussian(R) 16 program.  It is based on
 the Gaussian(R) 09 system (copyright 2009, Gaussian, Inc.),
 the Gaussian(R) 03 system (copyright 2003, Gaussian, Inc.),
 the Gaussian(R) 98 system (copyright 1998, Gaussian, Inc.),
 the Gaussian(R) 94 system (copyright 1995, Gaussian, Inc.),
 the Gaussian 92(TM) system (copyright 1992, Gaussian, Inc.),
 the Gaussian 90(TM) system (copyright 1990, Gaussian, Inc.),
 the Gaussian 88(TM) system (copyright 1988, Gaussian, Inc.),
 the Gaussian 86(TM) system (copyright 1986, Carnegie Mellon
 University), and the Gaussian 82(TM) system (copyright 1983,
 Carnegie Mellon University). Gaussian is a federally registered
 trademark of Gaussian, Inc.
  
 This software contains proprietary and confidential information,
 including trade secrets, belonging to Gaussian, Inc.
  
 This software is provided under written license and may be
 used, copied, transmitted, or stored only in accord with that
 written license.
  
 The following legend is applicable only to US Government
 contracts under FAR:
  
                    RESTRICTED RIGHTS LEGEND
  
 Use, reproduction and disclosure by the US Government is
 subject to restrictions as set forth in subparagraphs (a)
 and (c) of the Commercial Computer Software - Restricted
 Rights clause in FAR 52.227-19.
  
 Gaussian, Inc.
 340 Quinnipiac St., Bldg. 40, Wallingford CT 06492
  
  
 ---------------------------------------------------------------
 Warning -- This program may not be used in any manner that
 competes with the business of Gaussian, Inc. or will provide
 assistance to any competitor of Gaussian, Inc.  The licensee
 of this program is prohibited from giving any competitor of
 Gaussian, Inc. access to this program.  By using this program,
 the user acknowledges that Gaussian, Inc. is engaged in the
 business of creating and licensing software in the field of
 computational chemistry and represents and warrants to the
 licensee that it is not a competitor of Gaussian, Inc. and that
 it will not use this program in any manner prohibited above.
 ---------------------------------------------------------------
  

 Cite this work as:
 Gaussian 16, Revision B.01,
 M. J. Frisch, G. W. Trucks, H. B. Schlegel, G. E. Scuseria, 
 M. A. Robb, J. R. Cheeseman, G. Scalmani, V. Barone, 
 G. A. Petersson, H. Nakatsuji, X. Li, M. Caricato, A. V. Marenich, 
 J. Bloino, B. G. Janesko, R. Gomperts, B. Mennucci, H. P. Hratchian, 
 J. V. Ortiz, A. F. Izmaylov, J. L. Sonnenberg, D. Williams-Young, 
 F. Ding, F. Lipparini, F. Egidi, J. Goings, B. Peng, A. Petrone, 
 T. Henderson, D. Ranasinghe, V. G. Zakrzewski, J. Gao, N. Rega, 
 G. Zheng, W. Liang, M. Hada, M. Ehara, K. Toyota, R. Fukuda, 
 J. Hasegawa, M. Ishida, T. Nakajima, Y. Honda, O. Kitao, H. Nakai, 
 T. Vreven, K. Throssell, J. A. Montgomery, Jr., J. E. Peralta, 
 F. Ogliaro, M. J. Bearpark, J. J. Heyd, E. N. Brothers, K. N. Kudin, 
 V. N. Staroverov, T. A. Keith, R. Kobayashi, J. Normand, 
 K. Raghavachari, A. P. Rendell, J. C. Burant, S. S. Iyengar, 
 J. Tomasi, M. Cossi, J. M. Millam, M. Klene, C. Adamo, R. Cammi, 
 J. W. Ochterski, R. L. Martin, K. Morokuma, O. Farkas, 
 J. B. Foresman, and D. J. Fox, Gaussian, Inc., Wallingford CT, 2016.
 
 ******************************************
 Gaussian 16:  ES64L-G16RevB.01 20-Dec-2017
                29-Sep-2021 
 ******************************************
 %mem=1000mb
 %nprocs=1
 Will use up to    1 processors via shared memory.
 -----------------------------
 #P PM6=(print,zero,input) opt
 -----------------------------
 1/18=20,19=15,26=1,38=1/1,3;
 2/9=110,12=2,17=6,18=5,40=1/2;
 3/5=2,25=1,41=3900000,71=1,135=100,136=201/1,2,3;
 4/35=1/1;
 5/5=2,35=1,38=5/2;
 6/7=2,8=2,9=2,10=2,28=1/1;
 7//1,2,3,16;
 1/18=20,19=15,26=1/3(2);
 2/9=110/2;
 99//99;
 2/9=110/2;
 3/5=2,25=1,41=3900000,71=1,135=20,136=201/1,2,3;
 4/5=5,16=3,35=1/1;
 5/5=2,35=1,38=5/2;
 7//1,2,3,16;
 1/18=20,19=15,26=1/3(-5);
 2/9=110/2;
 6/7=2,8=2,9=2,10=2,19=2,28=1/1;
 99/9=1/99;
 Leave Link    1 at Wed Sep 29 16:03:49 2021, MaxMem=   131072000 cpu:               0.0 elap:               0.0
 (Enter /home/qc/Bg16_b01_x86_64_avx2/g16/l101.exe)
 ---------
 the title
 ---------
 Symbolic Z-matrix:
 Charge =  0 Multiplicity = 1
 C
 C                    1    GCC
 C                    1    GCC      2    CCC
 H                    2    CH       1    HCC      3     180.     0
 H                    3    CH       1    HCC      2     180.     0
       Variables:
  GCC                   1.42102                  
  CCC                  55.60133                  
  CH                    1.07693                  
  HCC                 147.81488                  
 
 Add atom      2 valence  3 ND=      1 dihedral       1      2      3      4
 Add atom      3 valence  3 ND=      2 dihedral       5      2      3      1
 ITRead=  0  0  0  0  0
 MicOpt= -1 -1 -1 -1 -1
 NAtoms=      5 NQM=        5 NQMF=       0 NMMI=      0 NMMIF=      0
                NMic=       0 NMicF=      0.
                    Isotopes and Nuclear Properties:
 (Nuclear quadrupole moments (NQMom) in fm**2, nuclear magnetic moments (NMagM)
  in nuclear magnetons)

  Atom         1           2           3           4           5
 IAtWgt=          12          12          12           1           1
 AtmWgt=  12.0000000  12.0000000  12.0000000   1.0078250   1.0078250
 NucSpn=           0           0           0           1           1
 AtZEff=   0.0000000   0.0000000   0.0000000   0.0000000   0.0000000
 NQMom=    0.0000000   0.0000000   0.0000000   0.0000000   0.0000000
 NMagM=    0.0000000   0.0000000   0.0000000   2.7928460   2.7928460
 AtZNuc=   6.0000000   6.0000000   6.0000000   1.0000000   1.0000000
 Leave Link  101 at Wed Sep 29 16:03:49 2021, MaxMem=   131072000 cpu:               0.1 elap:               0.1
 (Enter /home/qc/Bg16_b01_x86_64_avx2/g16/l103.exe)

 GradGradGradGradGradGradGradGradGradGradGradGradGradGradGradGradGradGrad
 Berny optimization.
 Initialization pass.
                           ----------------------------
                           !    Initial Parameters    !
                           ! (Angstroms and Degrees)  !
 --------------------------                            --------------------------
 ! Name  Definition              Value          Derivative Info.                !
 --------------------------------------------------------------------------------
 ! R1    R(1,2)                  1.421          estimate D2E/DX2                !
 ! R2    R(1,3)                  1.421          estimate D2E/DX2                !
 ! R3    R(2,3)                  1.3255         estimate D2E/DX2                !
 ! R4    R(2,4)                  1.0769         estimate D2E/DX2                !
 ! R5    R(3,5)                  1.0769         estimate D2E/DX2                !
 ! A1    A(1,2,4)              147.8149         estimate D2E/DX2                !
 ! A2    A(3,2,4)              149.9858         estimate D2E/DX2                !
 ! A3    A(1,3,5)              147.8149         estimate D2E/DX2                !
 ! A4    A(2,3,5)              149.9858         estimate D2E/DX2                !
 ! D1    D(1,2,3,4)            180.0            estimate D2E/DX2                !
 ! D2    D(4,2,3,5)              0.0            estimate D2E/DX2                !
 ! D3    D(5,2,3,1)            180.0            estimate D2E/DX2                !
 --------------------------------------------------------------------------------
 Trust Radius=3.00D-01 FncErr=1.00D-07 GrdErr=1.00D-07 EigMax=2.50D+02 EigMin=1.00D-04
 Number of steps in this run=     22 maximum allowed number of steps=    100.
 GradGradGradGradGradGradGradGradGradGradGradGradGradGradGradGradGradGrad

 Leave Link  103 at Wed Sep 29 16:03:49 2021, MaxMem=   131072000 cpu:               0.0 elap:               0.0
 (Enter /home/qc/Bg16_b01_x86_64_avx2/g16/l202.exe)
                          Input orientation:                          
 ---------------------------------------------------------------------
 Center     Atomic      Atomic             Coordinates (Angstroms)
 Number     Number       Type             X           Y           Z
 ---------------------------------------------------------------------
      1          6           0        0.000000    0.000000    0.000000
      2          6           0        0.000000    0.000000    1.421019
      3          6           0        1.172521    0.000000    0.802802
      4          1           0       -0.573633    0.000000    2.332457
      5          1           0        2.248645    0.000000    0.844397
 ---------------------------------------------------------------------
                    Distance matrix (angstroms):
                    1          2          3          4          5
     1  C    0.000000
     2  C    1.421019   0.000000
     3  C    1.421019   1.325518   0.000000
     4  H    2.401960   1.076928   2.321400   0.000000
     5  H    2.401960   2.321400   1.076928   3.190544   0.000000
 Stoichiometry    C3H2
 Framework group  C2V[C2(C),SGV(C2H2)]
 Deg. of freedom     4
 Full point group                 C2V     NOp   4
 Largest Abelian subgroup         C2V     NOp   4
 Largest concise Abelian subgroup C2      NOp   2
                         Standard orientation:                         
 ---------------------------------------------------------------------
 Center     Atomic      Atomic             Coordinates (Angstroms)
 Number     Number       Type             X           Y           Z
 ---------------------------------------------------------------------
      1          6           0        0.000000    0.000000    0.933769
      2          6           0        0.000000    0.662759   -0.323230
      3          6           0        0.000000   -0.662759   -0.323230
      4          1           0        0.000000    1.595272   -0.861925
      5          1           0        0.000000   -1.595272   -0.861925
 ---------------------------------------------------------------------
 Rotational constants (GHZ):          35.1175765          32.2480856          16.8108585
 Leave Link  202 at Wed Sep 29 16:03:49 2021, MaxMem=   131072000 cpu:               0.0 elap:               0.0
 (Enter /home/qc/Bg16_b01_x86_64_avx2/g16/l301.exe)

 Semi-emprical parameters in input format:
 Method=40 CoreType=2 PeptideFC=0.0000000000 RIJScale=0.0000000000 PM6R6=0.0000124488
 PM6R12=0.0000007621 ExpSw=0 CofSw=0.0000000000 R0Sw=0.0000000000 XabDefault=10.0000000000
 AabDefault=1.1536063198 PM7OH3=0.0000000000 PM7OH4=0.0000000000 PM6HCC=3674.9303600697
 ****
 H       
 PQN=1,0,0,0 NValence=1 F0ss=0.5032815131 F0sp=0.0000000000 F0pp=0.0000000000
 F0sd=0.0000000000 F0pd=0.0000000000 F0dd=0.0000000000 F2pp=0.0000000000 F2pd=0.0000000000
 F2dd=0.0000000000 F4dd=0.0000000000 G1sp=0.0000000000 G1pd=0.0000000000 G2sd=0.0000000000
 G3pd=0.0000000000 Rsppd=0.0000000000 Rsdpp=0.0000000000 Rsddd=0.0000000000
 ZetaOverlap=1.3463838844,0.0000000000,0.0000000000,0.0000000000
 Zeta1C=0.0000000000,0.0000000000,0.0000000000,0.0000000000
 U=-0.4742261814,0.0000000000,0.0000000000,0.0000000000
 Beta=-0.4668995543,0.0000000000,0.0000000000,0.0000000000 DDN=0,0,0.0000000000
 DDN=0,1,0.0000000000 DDN=1,1,0.0000000000 DDN=0,2,0.0000000000 DDN=1,2,0.0000000000
 DDN=2,2,0.0000000000 DDN=0,3,0.0000000000 DDN=1,3,0.0000000000 DDN=2,3,0.0000000000
 DDN=3,3,0.0000000000 CoreKO=0.7758606914 KON=0,0,0,0.9934797663 KON=1,0,0,0.0000000000
 KON=2,0,0,0.0000000000 KON=3,0,0,0.0000000000 KON=0,0,1,0.0000000000 KON=1,0,1,0.0000000000
 KON=2,0,1,0.0000000000 KON=3,0,1,0.0000000000 KON=0,1,1,0.0000000000 KON=1,1,1,0.0000000000
 KON=2,1,1,0.0000000000 KON=3,1,1,0.0000000000 KON=0,0,2,0.0000000000 KON=1,0,2,0.0000000000
 KON=2,0,2,0.0000000000 KON=3,0,2,0.0000000000 KON=0,1,2,0.0000000000 KON=1,1,2,0.0000000000
 KON=2,1,2,0.0000000000 KON=3,1,2,0.0000000000 KON=0,2,2,0.0000000000 KON=1,2,2,0.0000000000
 KON=2,2,2,0.0000000000 KON=3,2,2,0.0000000000 KON=0,0,3,0.0000000000 KON=1,0,3,0.0000000000
 KON=2,0,3,0.0000000000 KON=3,0,3,0.0000000000 KON=0,1,3,0.0000000000 KON=1,1,3,0.0000000000
 KON=2,1,3,0.0000000000 KON=3,1,3,0.0000000000 KON=0,2,3,0.0000000000 KON=1,2,3,0.0000000000
 KON=2,2,3,0.0000000000 KON=3,2,3,0.0000000000 KON=0,3,3,0.0000000000 KON=1,3,3,0.0000000000
 KON=2,3,3,0.0000000000 KON=3,3,3,0.0000000000 EISol=-0.4742261814 EHeat=0.0830298221
 Alpha=0.0000000000 DipHyp=0.0000000000
 GCore=-0.0119162797,0.8775921519,3.3643669281 DCore=1,3,1.8737858116,2.2435870000,0.0000000000,0.0000000000,0.0000000000
 ****
 C       
 PQN=2,2,0,0 NValence=4 F0ss=0.4184175168 F0sp=0.3620114552 F0pp=0.5405148012
 F0sd=0.0000000000 F0pd=0.0000000000 F0dd=0.0000000000 F2pp=0.6778458555 F2pd=0.0000000000
 F2dd=0.0000000000 F4dd=0.0000000000 G1sp=0.1211343170 G1pd=0.0000000000 G2sd=0.0000000000
 G3pd=0.0000000000 Rsppd=0.0000000000 Rsdpp=0.0000000000 Rsddd=0.0000000000
 ZetaOverlap=1.8286852822,1.5061691258,0.0000000000,0.0000000000
 Zeta1C=0.0000000000,0.0000000000,0.0000000000,0.0000000000
 U=-1.5480887492,-1.6936981163,0.0000000000,0.0000000000
 Beta=-0.1456835353,-0.3790279656,0.0000000000,0.0000000000 DDN=0,0,0.0000000000
 DDN=0,1,0.8455316356 DDN=1,1,0.8131522884 DDN=0,2,0.0000000000 DDN=1,2,0.0000000000
 DDN=2,2,0.0000000000 DDN=0,3,0.0000000000 DDN=1,3,0.0000000000 DDN=2,3,0.0000000000
 DDN=3,3,0.0000000000 CoreKO=1.2740393308 KON=0,0,0,1.1949786515 KON=1,0,0,0.0000000000
 KON=2,0,0,0.0000000000 KON=3,0,0,0.0000000000 KON=0,0,1,0.0000000000 KON=1,0,1,1.1713187703
 KON=2,0,1,0.0000000000 KON=3,0,1,0.0000000000 KON=0,1,1,1.1949786515 KON=1,1,1,0.0000000000
 KON=2,1,1,0.5173707381 KON=3,1,1,0.0000000000 KON=0,0,2,0.0000000000 KON=1,0,2,0.0000000000
 KON=2,0,2,0.0000000000 KON=3,0,2,0.0000000000 KON=0,1,2,0.0000000000 KON=1,1,2,0.0000000000
 KON=2,1,2,0.0000000000 KON=3,1,2,0.0000000000 KON=0,2,2,0.0000000000 KON=1,2,2,0.0000000000
 KON=2,2,2,0.0000000000 KON=3,2,2,0.0000000000 KON=0,0,3,0.0000000000 KON=1,0,3,0.0000000000
 KON=2,0,3,0.0000000000 KON=3,0,3,0.0000000000 KON=0,1,3,0.0000000000 KON=1,1,3,0.0000000000
 KON=2,1,3,0.0000000000 KON=3,1,3,0.0000000000 KON=0,2,3,0.0000000000 KON=1,2,3,0.0000000000
 KON=2,2,3,0.0000000000 KON=3,2,3,0.0000000000 KON=0,3,3,0.0000000000 KON=1,3,3,0.0000000000
 KON=2,3,3,0.0000000000 KON=3,3,3,0.0000000000 EISol=-4.2929209746 EHeat=0.2723305496
 Alpha=0.0000000000 DipHyp=1.6909658931
 GCore=0.0105311240,0.6127683039,2.6057930524 DCore=1,4,0.2878149936,0.2165060000,0.0000000000,0.0000000000,0.0000000000
 DCore=2,3,1.6101301456,3.2139710000,0.0000000000,0.0000000000,0.0000000000
 DCore=3,3,1.7155258415,16.1800020000,0.0000000000,0.0000000000,0.0000000000
 DCore=4,3,2.2293611467,25.0358790000,0.0000000000,0.0000000000,0.0000000000
 DCore=5,3,1.5446719829,1.8748590000,0.0000000000,0.0000000000,0.0000000000
 DCore=6,5,1.3831173555,0.8135100000,3.1644797213,9.2800000000,0.0000000000
 ****
 
 Standard basis: VSTO-6G (5D, 7F)
 Ernie: Thresh=  0.10000D-02 Tol=  0.10000D-05 Strict=F.
  NNHCO=     0 NNPyr=     0 NCTC=     0               EPep=         0.000000000
    EC=        19.310837353  ECS=         0.967748505   EG=         0.397372129
   EHC=         0.000199208  EAt=       -13.827215287  AtH=         0.983051293
 EPDDG=         0.000000000  ECC=        20.676157195 EAtT=        14.810266580
 There are     6 symmetry adapted cartesian basis functions of A1  symmetry.
 There are     1 symmetry adapted cartesian basis functions of A2  symmetry.
 There are     2 symmetry adapted cartesian basis functions of B1  symmetry.
 There are     5 symmetry adapted cartesian basis functions of B2  symmetry.
 There are     6 symmetry adapted basis functions of A1  symmetry.
 There are     1 symmetry adapted basis functions of A2  symmetry.
 There are     2 symmetry adapted basis functions of B1  symmetry.
 There are     5 symmetry adapted basis functions of B2  symmetry.
    14 basis functions,    84 primitive gaussians,    14 cartesian basis functions
     7 alpha electrons        7 beta electrons
       nuclear repulsion energy        35.4864237742 Hartrees.
 IExCor=    0 DFT=F Ex=HF Corr=None ExCW=0 ScaHFX=  1.000000
 ScaDFX=  1.000000  1.000000  1.000000  1.000000 ScalE2=  1.000000  1.000000
 IRadAn=      5 IRanWt=     -1 IRanGd=            0 ICorTp=0 IEmpDi=  4
 Integral buffers will be    131072 words long.
 Regular integral format.
 Two-electron integral symmetry is turned off.
 Leave Link  301 at Wed Sep 29 16:03:49 2021, MaxMem=   131072000 cpu:               0.1 elap:               0.1
 (Enter /home/qc/Bg16_b01_x86_64_avx2/g16/l302.exe)
 Do NDO integrals.
 NPDir=0 NMtPBC=     1 NCelOv=     1 NCel=       1 NClECP=     1 NCelD=      1
         NCelK=      1 NCelE2=     1 NClLst=     1 CellRange=     0.0.
 One-electron integrals computed using PRISM.
 NBasis=    14 RedAO= T EigKep=  1.00D+00  NBF=     6     1     2     5
 NBsUse=    14 1.00D-06 EigRej= -1.00D+00 NBFU=     6     1     2     5
 Leave Link  302 at Wed Sep 29 16:03:49 2021, MaxMem=   131072000 cpu:               0.1 elap:               0.1
 (Enter /home/qc/Bg16_b01_x86_64_avx2/g16/l303.exe)
 DipDrv:  MaxL=1.
 Leave Link  303 at Wed Sep 29 16:03:49 2021, MaxMem=   131072000 cpu:               0.0 elap:               0.0
 (Enter /home/qc/Bg16_b01_x86_64_avx2/g16/l401.exe)
 Simple Huckel Guess.
 JPrj=0 DoOrth=F DoCkMO=F.
 Initial guess orbital symmetries:
       Occupied  (A1) (B2) (A1) (A1) (B1) (B2) (A1)
       Virtual   (B1) (A2) (B2) (B2) (A1) (A1) (B2)
 The electronic state of the initial guess is 1-A1.
 Leave Link  401 at Wed Sep 29 16:03:49 2021, MaxMem=   131072000 cpu:               0.1 elap:               0.1
 (Enter /home/qc/Bg16_b01_x86_64_avx2/g16/l502.exe)
 Keep J ints in memory in canonical form, NReq=859652.
 FoFCou: FMM=F IPFlag=           0 FMFlag=           0 FMFlg1=           0
         NFxFlg=           0 DoJE=F BraDBF=F KetDBF=F FulRan=T
         wScrn=  0.000000 ICntrl=       600 IOpCl=  2 I1Cent=           0 NGrid=           0
         NMat0=    1 NMatS0=     32 NMatT0=    0 NMatD0=    1 NMtDS0=    0 NMtDT0=    0
 Symmetry not used in FoFCou.
 Two-electron integral symmetry not used.
 Closed shell SCF:
 Using DIIS extrapolation, IDIIS=  1040.
 Overlap will be assumed to be unity.
 NGot=   131072000 LenX=   131011167 LenY=   131010285
 Requested convergence on RMS density matrix=1.00D-08 within 128 cycles.
 Requested convergence on MAX density matrix=1.00D-06.
 Requested convergence on             energy=1.00D-06.
 No special actions if energy rises.

 Cycle   1  Pass 1  IDiag  1:
 E= 0.241019600479632    
 DIIS: error= 2.97D-02 at cycle   1 NSaved=   1.
 NSaved= 1 IEnMin= 1 EnMin= 0.241019600479632     IErMin= 1 ErrMin= 2.97D-02
 ErrMax= 2.97D-02  0.00D+00 EMaxC= 1.00D-01 BMatC= 3.16D-02 BMatP= 3.16D-02
 IDIUse=3 WtCom= 7.03D-01 WtEn= 2.97D-01
 Coeff-Com:  0.100D+01
 Coeff-En:   0.100D+01
 Coeff:      0.100D+01
 GapD=    2.000 DampG=2.000 DampE=0.500 DampFc=1.0000 IDamp=-1.
 RMSDP=2.68D-02 MaxDP=1.44D-01              OVMax= 0.00D+00

 Cycle   2  Pass 1  IDiag  1:
 E= 0.172442988615522     Delta-E=       -0.068576611864 Rises=F Damp=F
 DIIS: error= 1.46D-02 at cycle   2 NSaved=   2.
 NSaved= 2 IEnMin= 2 EnMin= 0.172442988615522     IErMin= 2 ErrMin= 1.46D-02
 ErrMax= 1.46D-02  0.00D+00 EMaxC= 1.00D-01 BMatC= 4.77D-03 BMatP= 3.16D-02
 IDIUse=3 WtCom= 8.54D-01 WtEn= 1.46D-01
 Coeff-Com:  0.238D+00 0.762D+00
 Coeff-En:   0.000D+00 0.100D+01
 Coeff:      0.203D+00 0.797D+00
 RMSDP=8.40D-03 MaxDP=4.36D-02 DE=-6.86D-02 OVMax= 0.00D+00

 Cycle   3  Pass 1  IDiag  3:
 E= 0.161245392132130     Delta-E=       -0.011197596483 Rises=F Damp=F
 DIIS: error= 3.19D-03 at cycle   3 NSaved=   3.
 NSaved= 3 IEnMin= 3 EnMin= 0.161245392132130     IErMin= 3 ErrMin= 3.19D-03
 ErrMax= 3.19D-03  0.00D+00 EMaxC= 1.00D-01 BMatC= 2.50D-04 BMatP= 4.77D-03
 IDIUse=3 WtCom= 9.68D-01 WtEn= 3.19D-02
 Coeff-Com: -0.117D+00-0.145D+00 0.126D+01
 Coeff-En:   0.000D+00 0.000D+00 0.100D+01
 Coeff:     -0.113D+00-0.141D+00 0.125D+01
 Fock symm off for IB=2 I1=    1 I=    7 J=    5 Cut=1.00D-07 Err=3.77D-03
 Fock matrix is not symmetric: symmetry in diagonalization turned off.
 Gap=     0.331 Goal=   None    Shift=    0.000
 RMSDP=3.80D-03 MaxDP=1.76D-02 DE=-1.12D-02 OVMax= 2.69D-02

 Cycle   4  Pass 1  IDiag  3:
 E= 0.159924722402494     Delta-E=       -0.001320669730 Rises=F Damp=F
 DIIS: error= 7.10D-04 at cycle   4 NSaved=   4.
 NSaved= 4 IEnMin= 4 EnMin= 0.159924722402494     IErMin= 4 ErrMin= 7.10D-04
 ErrMax= 7.10D-04  0.00D+00 EMaxC= 1.00D-01 BMatC= 1.80D-05 BMatP= 2.50D-04
 IDIUse=3 WtCom= 9.93D-01 WtEn= 7.10D-03
 Coeff-Com:  0.621D-01 0.245D-01-0.657D+00 0.157D+01
 Coeff-En:   0.000D+00 0.000D+00 0.000D+00 0.100D+01
 Coeff:      0.617D-01 0.244D-01-0.653D+00 0.157D+01
 Gap=     0.331 Goal=   None    Shift=    0.000
 RMSDP=1.31D-03 MaxDP=6.10D-03 DE=-1.32D-03 OVMax= 8.67D-03

 Cycle   5  Pass 1  IDiag  3:
 E= 0.159806561412012     Delta-E=       -0.000118160990 Rises=F Damp=F
 DIIS: error= 1.64D-04 at cycle   5 NSaved=   5.
 NSaved= 5 IEnMin= 5 EnMin= 0.159806561412012     IErMin= 5 ErrMin= 1.64D-04
 ErrMax= 1.64D-04  0.00D+00 EMaxC= 1.00D-01 BMatC= 7.36D-07 BMatP= 1.80D-05
 IDIUse=3 WtCom= 9.98D-01 WtEn= 1.64D-03
 Coeff-Com: -0.159D-01-0.805D-02 0.168D+00-0.566D+00 0.142D+01
 Coeff-En:   0.000D+00 0.000D+00 0.000D+00 0.000D+00 0.100D+01
 Coeff:     -0.158D-01-0.803D-02 0.168D+00-0.565D+00 0.142D+01
 Gap=     0.332 Goal=   None    Shift=    0.000
 RMSDP=3.35D-04 MaxDP=1.89D-03 DE=-1.18D-04 OVMax= 2.83D-03

 Cycle   6  Pass 1  IDiag  3:
 E= 0.159800618231664     Delta-E=       -0.000005943180 Rises=F Damp=F
 DIIS: error= 3.16D-05 at cycle   6 NSaved=   6.
 NSaved= 6 IEnMin= 6 EnMin= 0.159800618231664     IErMin= 6 ErrMin= 3.16D-05
 ErrMax= 3.16D-05  0.00D+00 EMaxC= 1.00D-01 BMatC= 3.62D-08 BMatP= 7.36D-07
 IDIUse=1 WtCom= 1.00D+00 WtEn= 0.00D+00
 Coeff-Com:  0.315D-02 0.133D-02-0.312D-01 0.153D+00-0.561D+00 0.143D+01
 Coeff:      0.315D-02 0.133D-02-0.312D-01 0.153D+00-0.561D+00 0.143D+01
 Gap=     0.331 Goal=   None    Shift=    0.000
 RMSDP=6.69D-05 MaxDP=3.63D-04 DE=-5.94D-06 OVMax= 5.61D-04

 Cycle   7  Pass 1  IDiag  3:
 E= 0.159800316632449     Delta-E=       -0.000000301599 Rises=F Damp=F
 DIIS: error= 1.53D-05 at cycle   7 NSaved=   7.
 NSaved= 7 IEnMin= 7 EnMin= 0.159800316632449     IErMin= 7 ErrMin= 1.53D-05
 ErrMax= 1.53D-05  0.00D+00 EMaxC= 1.00D-01 BMatC= 3.72D-09 BMatP= 3.62D-08
 IDIUse=1 WtCom= 1.00D+00 WtEn= 0.00D+00
 Coeff-Com: -0.770D-03-0.452D-03 0.587D-02-0.671D-01 0.329D+00-0.111D+01
 Coeff-Com:  0.185D+01
 Coeff:     -0.770D-03-0.452D-03 0.587D-02-0.671D-01 0.329D+00-0.111D+01
 Coeff:      0.185D+01
 Gap=     0.332 Goal=   None    Shift=    0.000
 RMSDP=2.79D-05 MaxDP=1.55D-04 DE=-3.02D-07 OVMax= 2.39D-04

 Cycle   8  Pass 1  IDiag  3:
 E= 0.159800282104300     Delta-E=       -0.000000034528 Rises=F Damp=F
 DIIS: error= 2.41D-06 at cycle   8 NSaved=   8.
 NSaved= 8 IEnMin= 8 EnMin= 0.159800282104300     IErMin= 8 ErrMin= 2.41D-06
 ErrMax= 2.41D-06  0.00D+00 EMaxC= 1.00D-01 BMatC= 1.58D-10 BMatP= 3.72D-09
 IDIUse=1 WtCom= 1.00D+00 WtEn= 0.00D+00
 Coeff-Com: -0.126D-04-0.893D-06 0.188D-02 0.317D-01-0.201D+00 0.771D+00
 Coeff-Com: -0.146D+01 0.186D+01
 Coeff:     -0.126D-04-0.893D-06 0.188D-02 0.317D-01-0.201D+00 0.771D+00
 Coeff:     -0.146D+01 0.186D+01
 Gap=     0.332 Goal=   None    Shift=    0.000
 RMSDP=5.15D-06 MaxDP=2.27D-05 DE=-3.45D-08 OVMax= 4.03D-05

 Cycle   9  Pass 1  IDiag  3:
 E= 0.159800280889684     Delta-E=       -0.000000001215 Rises=F Damp=F
 DIIS: error= 3.85D-07 at cycle   9 NSaved=   9.
 NSaved= 9 IEnMin= 9 EnMin= 0.159800280889684     IErMin= 9 ErrMin= 3.85D-07
 ErrMax= 3.85D-07  0.00D+00 EMaxC= 1.00D-01 BMatC= 3.14D-12 BMatP= 1.58D-10
 IDIUse=1 WtCom= 1.00D+00 WtEn= 0.00D+00
 Coeff-Com: -0.409D-05 0.215D-04-0.748D-03-0.138D-01 0.866D-01-0.328D+00
 Coeff-Com:  0.618D+00-0.773D+00 0.141D+01
 Coeff:     -0.409D-05 0.215D-04-0.748D-03-0.138D-01 0.866D-01-0.328D+00
 Coeff:      0.618D+00-0.773D+00 0.141D+01
 Gap=     0.332 Goal=   None    Shift=    0.000
 RMSDP=2.85D-07 MaxDP=1.54D-06 DE=-1.21D-09 OVMax= 1.79D-06

 Cycle  10  Pass 1  IDiag  3:
 E= 0.159800280881704     Delta-E=       -0.000000000008 Rises=F Damp=F
 DIIS: error= 1.08D-07 at cycle  10 NSaved=  10.
 NSaved=10 IEnMin=10 EnMin= 0.159800280881704     IErMin=10 ErrMin= 1.08D-07
 ErrMax= 1.08D-07  0.00D+00 EMaxC= 1.00D-01 BMatC= 3.09D-13 BMatP= 3.14D-12
 IDIUse=1 WtCom= 1.00D+00 WtEn= 0.00D+00
 Coeff-Com: -0.134D-05-0.122D-04 0.831D-04 0.892D-03-0.576D-02 0.209D-01
 Coeff-Com: -0.380D-01 0.352D-01-0.204D+00 0.119D+01
 Coeff:     -0.134D-05-0.122D-04 0.831D-04 0.892D-03-0.576D-02 0.209D-01
 Coeff:     -0.380D-01 0.352D-01-0.204D+00 0.119D+01
 Gap=     0.332 Goal=   None    Shift=    0.000
 RMSDP=9.27D-08 MaxDP=5.86D-07 DE=-7.98D-12 OVMax= 6.62D-07

 Cycle  11  Pass 1  IDiag  3:
 E= 0.159800280880887     Delta-E=       -0.000000000001 Rises=F Damp=F
 DIIS: error= 1.19D-08 at cycle  11 NSaved=  11.
 NSaved=11 IEnMin=11 EnMin= 0.159800280880887     IErMin=11 ErrMin= 1.19D-08
 ErrMax= 1.19D-08  0.00D+00 EMaxC= 1.00D-01 BMatC= 2.62D-15 BMatP= 3.09D-13
 IDIUse=1 WtCom= 1.00D+00 WtEn= 0.00D+00
 Coeff-Com:  0.121D-06 0.392D-05-0.758D-05-0.447D-05 0.159D-04 0.346D-03
 Coeff-Com: -0.114D-02 0.692D-02 0.342D-01-0.378D+00 0.134D+01
 Coeff:      0.121D-06 0.392D-05-0.758D-05-0.447D-05 0.159D-04 0.346D-03
 Coeff:     -0.114D-02 0.692D-02 0.342D-01-0.378D+00 0.134D+01
 Gap=     0.332 Goal=   None    Shift=    0.000
 RMSDP=1.14D-08 MaxDP=8.02D-08 DE=-8.17D-13 OVMax= 8.70D-08

 Cycle  12  Pass 1  IDiag  3:
 E= 0.159800280880859     Delta-E=        0.000000000000 Rises=F Damp=F
 DIIS: error= 1.13D-09 at cycle  12 NSaved=  12.
 NSaved=12 IEnMin=12 EnMin= 0.159800280880859     IErMin=12 ErrMin= 1.13D-09
 ErrMax= 1.13D-09  0.00D+00 EMaxC= 1.00D-01 BMatC= 3.33D-17 BMatP= 2.62D-15
 IDIUse=1 WtCom= 1.00D+00 WtEn= 0.00D+00
 Coeff-Com: -0.609D-07-0.475D-06-0.134D-05-0.505D-04 0.320D-03-0.125D-02
 Coeff-Com:  0.238D-02-0.390D-02 0.132D-02 0.446D-01-0.307D+00 0.126D+01
 Coeff:     -0.609D-07-0.475D-06-0.134D-05-0.505D-04 0.320D-03-0.125D-02
 Coeff:      0.238D-02-0.390D-02 0.132D-02 0.446D-01-0.307D+00 0.126D+01
 Gap=     0.332 Goal=   None    Shift=    0.000
 RMSDP=1.69D-09 MaxDP=6.90D-09 DE=-2.84D-14 OVMax= 1.14D-08

 Cycle  13  Pass 2  IDiag  1:
 SCF Done:  E(RPM6) =  0.159800280881     A.U. after   13 cycles
            NFock= 12  Conv=0.17D-08     -V/T= 1.0068
 KE=-2.362466410784D+01 PE=-3.803650371029D+01 EE= 2.633454432480D+01
 Leave Link  502 at Wed Sep 29 16:03:49 2021, MaxMem=   131072000 cpu:               0.0 elap:               0.0
 (Enter /home/qc/Bg16_b01_x86_64_avx2/g16/l601.exe)
 Copying SCF densities to generalized density rwf, IOpCl= 0 IROHF=0.

 **********************************************************************

            Population analysis using the SCF Density.

 **********************************************************************

 Orbital symmetries:
       Occupied  (A1) (B2) (A1) (B1) (A1) (B2) (A1)
       Virtual   (B2) (A2) (B1) (A1) (B2) (A1) (B2)
 The electronic state is 1-A1.
 Alpha  occ. eigenvalues --   -0.96463  -0.80797  -0.75848  -0.57982  -0.57576
 Alpha  occ. eigenvalues --   -0.48055  -0.32883
 Alpha virt. eigenvalues --    0.00234   0.04477   0.05921   0.06657   0.18712
 Alpha virt. eigenvalues --    0.19150   0.23507
          Condensed to atoms (all electrons):
               1          2          3          4          5
     1  C    4.287423   0.000000   0.000000   0.000000   0.000000
     2  C    0.000000   3.915616   0.000000   0.000000   0.000000
     3  C    0.000000   0.000000   3.915616   0.000000   0.000000
     4  H    0.000000   0.000000   0.000000   0.940672   0.000000
     5  H    0.000000   0.000000   0.000000   0.000000   0.940672
 Mulliken charges:
               1
     1  C   -0.287423
     2  C    0.084384
     3  C    0.084384
     4  H    0.059328
     5  H    0.059328
 Sum of Mulliken charges =   0.00000
 Mulliken charges with hydrogens summed into heavy atoms:
               1
     1  C   -0.287423
     2  C    0.143712
     3  C    0.143712
 Charge=              0.0000 electrons
 Dipole moment (field-independent basis, Debye):
    X=              0.0000    Y=              0.0000    Z=             -4.5181  Tot=              4.5181
 N-N= 3.548642377421D+01 E-N=-3.803650371050D+01  KE=-2.362466410784D+01
 Symmetry A1   KE=-1.346610579039D+01
 Symmetry A2   KE= 8.722513896728D-17
 Symmetry B1   KE=-3.830684091096D+00
 Symmetry B2   KE=-6.327874226348D+00
 Leave Link  601 at Wed Sep 29 16:03:49 2021, MaxMem=   131072000 cpu:               0.0 elap:               0.0
 (Enter /home/qc/Bg16_b01_x86_64_avx2/g16/l701.exe)
 ... and contract with generalized density number  0.
 Compute integral first derivatives.
 Leave Link  701 at Wed Sep 29 16:03:50 2021, MaxMem=   131072000 cpu:               0.1 elap:               0.1
 (Enter /home/qc/Bg16_b01_x86_64_avx2/g16/l702.exe)
 L702 exits ... SP integral derivatives will be done elsewhere.
 Leave Link  702 at Wed Sep 29 16:03:50 2021, MaxMem=   131072000 cpu:               0.0 elap:               0.0
 (Enter /home/qc/Bg16_b01_x86_64_avx2/g16/l703.exe)
 Integral derivatives from FoFJK, PRISM(SPDF).
 Compute integral first derivatives, UseDBF=F ICtDFT=           0.
 Calling FoFJK, ICntrl=      2127 FMM=F ISym2X=1 I1Cent= 0 IOpClX= 0 NMat=1 NMatS=1 NMatT=0.
 FoFJK:  IHMeth=40 ICntrl=    2127 DoSepK=F KAlg= 0 I1Cent=           0 FoldK=F
 IRaf=         0 NMat=       1 IRICut=       1 DoRegI=T DoRafI=F ISym2E= 1 IDoP0=3 IntGTp=3.
 FoFCou: FMM=F IPFlag=           0 FMFlag=      100000 FMFlg1=         800
         NFxFlg=           0 DoJE=F BraDBF=F KetDBF=F FulRan=T
         wScrn=  0.000000 ICntrl=      2127 IOpCl=  0 I1Cent=           0 NGrid=           0
         NMat0=    1 NMatS0=      1 NMatT0=    0 NMatD0=    1 NMtDS0=    0 NMtDT0=    0
 Petite list used in FoFCou.
 Leave Link  703 at Wed Sep 29 16:03:50 2021, MaxMem=   131072000 cpu:               0.1 elap:               0.0
 (Enter /home/qc/Bg16_b01_x86_64_avx2/g16/l716.exe)
 Dipole        =-1.31160421D-15-1.37667655D-14-1.77755247D+00
 ***** Axes restored to original set *****
 -------------------------------------------------------------------
 Center     Atomic                   Forces (Hartrees/Bohr)
 Number     Number              X              Y              Z
 -------------------------------------------------------------------
      1        6          -0.000031832    0.000000000   -0.000060373
      2        6           0.000145330    0.000000000   -0.000039027
      3        6          -0.000114306    0.000000000    0.000097868
      4        1          -0.000002953    0.000000000    0.000002536
      5        1           0.000003761    0.000000000   -0.000001004
 -------------------------------------------------------------------
 Cartesian Forces:  Max     0.000145330 RMS     0.000057721
 Leave Link  716 at Wed Sep 29 16:03:50 2021, MaxMem=   131072000 cpu:               0.0 elap:               0.1
 (Enter /home/qc/Bg16_b01_x86_64_avx2/g16/l103.exe)

 GradGradGradGradGradGradGradGradGradGradGradGradGradGradGradGradGradGrad
 Berny optimization.
 FormGI is forming the generalized inverse of G from B-inverse, IUseBI=4.
 Internal  Forces:  Max     0.000152288 RMS     0.000047538
 Search for a local minimum.
 Step number   1 out of a maximum of   22
 All quantities printed in internal units (Hartrees-Bohrs-Radians)
 RMS Force = .47538D-04 SwitMx=.10000D-02 MixMth= 2
 Mixed Optimization -- En-DIIS/RFO-DIIS
 Second derivative matrix not updated -- first step.
 The second derivative matrix:
                          R1        R2        R3        R4        R5
           R1           0.42307
           R2           0.00000   0.42307
           R3           0.00000   0.00000   0.60577
           R4           0.00000   0.00000   0.00000   0.36368
           R5           0.00000   0.00000   0.00000   0.00000   0.36368
           A1           0.00000   0.00000   0.00000   0.00000   0.00000
           A2           0.00000   0.00000   0.00000   0.00000   0.00000
           A3           0.00000   0.00000   0.00000   0.00000   0.00000
           A4           0.00000   0.00000   0.00000   0.00000   0.00000
           D1           0.00000   0.00000   0.00000   0.00000   0.00000
           D2           0.00000   0.00000   0.00000   0.00000   0.00000
           D3           0.00000   0.00000   0.00000   0.00000   0.00000
                          A1        A2        A3        A4        D1
           A1           0.16000
           A2           0.00000   0.16000
           A3           0.00000   0.00000   0.16000
           A4           0.00000   0.00000   0.00000   0.16000
           D1           0.00000   0.00000   0.00000   0.00000   0.03074
           D2           0.00000   0.00000   0.00000   0.00000   0.00000
           D3           0.00000   0.00000   0.00000   0.00000   0.00000
                          D2        D3
           D2           0.03074
           D3           0.00000   0.03074
 ITU=  0
     Eigenvalues ---    0.03074   0.03074   0.16000   0.16000   0.36368
     Eigenvalues ---    0.36368   0.37056   0.41778   0.58772
 RFO step:  Lambda=-4.87176498D-08 EMin= 3.07401325D-02
 Linear search not attempted -- first point.
 Iteration  1 RMS(Cart)=  0.00009723 RMS(Int)=  0.00000000
 Iteration  2 RMS(Cart)=  0.00000000 RMS(Int)=  0.00000000
 ITry= 1 IFail=0 DXMaxC= 1.65D-04 DCOld= 1.00D+10 DXMaxT= 3.00D-01 DXLimC= 3.00D+00 Rises=F
 ClnCor:  largest displacement from symmetrization is 6.46D-15 for atom     5.
 Variable       Old X    -DE/DX   Delta X   Delta X   Delta X     New X
                                 (Linear)    (Quad)   (Total)
    R1        2.68534   0.00003   0.00000   0.00009   0.00009   2.68542
    R2        2.68534   0.00003   0.00000   0.00009   0.00009   2.68542
    R3        2.50487  -0.00015   0.00000  -0.00026  -0.00026   2.50460
    R4        2.03510   0.00000   0.00000   0.00001   0.00001   2.03511
    R5        2.03510   0.00000   0.00000   0.00001   0.00001   2.03511
    A1        2.57986  -0.00002   0.00000  -0.00004  -0.00004   2.57981
    A2        2.61775  -0.00002   0.00000  -0.00003  -0.00003   2.61772
    A3        2.57986  -0.00002   0.00000  -0.00004  -0.00004   2.57981
    A4        2.61775  -0.00002   0.00000  -0.00003  -0.00003   2.61772
    D1        3.14159   0.00000   0.00000   0.00000   0.00000   3.14159
    D2        0.00000   0.00000   0.00000   0.00000   0.00000   0.00000
    D3        3.14159   0.00000   0.00000   0.00000   0.00000   3.14159
         Item               Value     Threshold  Converged?
 Maximum Force            0.000152     0.000450     YES
 RMS     Force            0.000048     0.000300     YES
 Maximum Displacement     0.000165     0.001800     YES
 RMS     Displacement     0.000097     0.001200     YES
 Predicted change in Energy=-2.435872D-08
 Optimization completed.
    -- Stationary point found.
                           ----------------------------
                           !   Optimized Parameters   !
                           ! (Angstroms and Degrees)  !
 --------------------------                            --------------------------
 ! Name  Definition              Value          Derivative Info.                !
 --------------------------------------------------------------------------------
 ! R1    R(1,2)                  1.421          -DE/DX =    0.0                 !
 ! R2    R(1,3)                  1.421          -DE/DX =    0.0                 !
 ! R3    R(2,3)                  1.3255         -DE/DX =   -0.0002              !
 ! R4    R(2,4)                  1.0769         -DE/DX =    0.0                 !
 ! R5    R(3,5)                  1.0769         -DE/DX =    0.0                 !
 ! A1    A(1,2,4)              147.8149         -DE/DX =    0.0                 !
 ! A2    A(3,2,4)              149.9858         -DE/DX =    0.0                 !
 ! A3    A(1,3,5)              147.8149         -DE/DX =    0.0                 !
 ! A4    A(2,3,5)              149.9858         -DE/DX =    0.0                 !
 ! D1    D(1,2,3,4)            180.0            -DE/DX =    0.0                 !
 ! D2    D(4,2,3,5)              0.0            -DE/DX =    0.0                 !
 ! D3    D(5,2,3,1)            180.0            -DE/DX =    0.0                 !
 --------------------------------------------------------------------------------
 Lowest energy point so far.  Saving SCF results.
 Largest change from initial coordinates is atom    5       0.000 Angstoms.
 GradGradGradGradGradGradGradGradGradGradGradGradGradGradGradGradGradGrad

 Leave Link  103 at Wed Sep 29 16:03:50 2021, MaxMem=   131072000 cpu:               0.0 elap:               0.0
 (Enter /home/qc/Bg16_b01_x86_64_avx2/g16/l202.exe)
                          Input orientation:                          
 ---------------------------------------------------------------------
 Center     Atomic      Atomic             Coordinates (Angstroms)
 Number     Number       Type             X           Y           Z
 ---------------------------------------------------------------------
      1          6           0        0.000000    0.000000    0.000000
      2          6           0        0.000000    0.000000    1.421019
      3          6           0        1.172521    0.000000    0.802802
      4          1           0       -0.573633    0.000000    2.332457
      5          1           0        2.248645    0.000000    0.844397
 ---------------------------------------------------------------------
                    Distance matrix (angstroms):
                    1          2          3          4          5
     1  C    0.000000
     2  C    1.421019   0.000000
     3  C    1.421019   1.325518   0.000000
     4  H    2.401960   1.076928   2.321400   0.000000
     5  H    2.401960   2.321400   1.076928   3.190544   0.000000
 Stoichiometry    C3H2
 Framework group  C2V[C2(C),SGV(C2H2)]
 Deg. of freedom     4
 Full point group                 C2V     NOp   4
 RotChk:  IX=0 Diff= 1.73D-15
 Largest Abelian subgroup         C2V     NOp   4
 Largest concise Abelian subgroup C2      NOp   2
                         Standard orientation:                         
 ---------------------------------------------------------------------
 Center     Atomic      Atomic             Coordinates (Angstroms)
 Number     Number       Type             X           Y           Z
 ---------------------------------------------------------------------
      1          6           0        0.000000    0.000000    0.933769
      2          6           0        0.000000    0.662759   -0.323230
      3          6           0        0.000000   -0.662759   -0.323230
      4          1           0        0.000000    1.595272   -0.861925
      5          1           0        0.000000   -1.595272   -0.861925
 ---------------------------------------------------------------------
 Rotational constants (GHZ):          35.1175765          32.2480856          16.8108585
 Leave Link  202 at Wed Sep 29 16:03:50 2021, MaxMem=   131072000 cpu:               0.0 elap:               0.0
 (Enter /home/qc/Bg16_b01_x86_64_avx2/g16/l9999.exe)
 B after Tr=     0.000000    0.000000    0.000000
         Rot=    1.000000    0.000000    0.000000    0.000000 Ang=   0.00 deg.
 Final structure in terms of initial Z-matrix:
 C
 C,1,GCC
 C,1,GCC,2,CCC
 H,2,CH,1,HCC,3,180.,0
 H,3,CH,1,HCC,2,180.,0
      Variables:
 GCC=1.42101898
 CCC=55.60133141
 CH=1.07692776
 HCC=147.8148823
 1\1\GINC-NODE3\FOpt\RPM6\ZDO\C3H2\BRENT\29-Sep-2021\0\\#P PM6=(print,z
 ero,input) opt\\the title\\0,1\C,0.,0.,0.\C,0.,0.,1.42101898\C,1.17252
 05971,0.,0.8028015887\H,-0.5736325321,0.,2.3324569199\H,2.2486447638,0
 .,0.8443969987\\Version=ES64L-G16RevB.01\State=1-A1\HF=0.1598003\RMSD=
 1.691e-09\RMSF=5.772e-05\Dipole=0.829045,0.,1.5723795\PG=C02V [C2(C1),
 SGV(C2H2)]\\@


 THE RARE EARTHS PERPLEX US IN OUR RESEARCHES,
 BAFFLE US IN OUR SPECULATIONS, AND HAUNT US IN OUR
 VERY DREAMS.  THEY STRETCH LIKE AN UNKNOWN BEFORE US,
 MOCKING, MYSTIFYING, AND MURMURING STRANGE REVELATIONS
 AND POSSIBILITIES.  -- SIR WILLIAM CROOKE, 1832-1919
 Job cpu time:       0 days  0 hours  0 minutes  0.9 seconds.
 Elapsed time:       0 days  0 hours  0 minutes  0.9 seconds.
 File lengths (MBytes):  RWF=      6 Int=      0 D2E=      0 Chk=      2 Scr=      1
 Normal termination of Gaussian 16 at Wed Sep 29 16:03:50 2021.
 
 
-----JOB STATISTICS FROM G09 SCRIPT----
--Machine Info--
Linux node3 4.12.14-lp150.12.16-default x86_64 x86_64
 
--Timing  Info--
    0.297u 0.642s 0:00.99 93.9% 0+0k 0+8464io 0pf+0w
 
--FileSys Info--
Filesystem      Size  Used Avail Use% Mounted on
/dev/sda9       785G  343G  403G  47% /scratch
Filesystem      Size  Used Avail Use% Mounted on
master:/home    7.1T  638G  6.5T   9% /home
total 8
-rw-r--r-- 1 brent root 304 Sep 29 16:03 opt.com
-rw-r--r-- 1 brent root  31 Sep 29 16:03 workdir.txt
