
 Primary working directories    : /tmp/r2518/252862.maple/molpro.iiSVL6mqUT
 Secondary working directories  : /tmp/r2518/252862.maple/molpro.iiSVL6mqUT
 Wavefunction directory         : /ddn/home1/r2518/wfu/
 Main file repository           : /tmp/r2518/252862.maple/molpro.iiSVL6mqUT/

 id        : olemiss

 Nodes     nprocs
 cn113        1

 Using customized tuning parameters: mindgm=1; mindgv=20; mindgc=4; mindgr=1; noblas=0; minvec=7
 default implementation of scratch files=df  


 Variables initialized (934), CPU time= 0.00 sec
 memory,1,g
 
 nocompress;
 
 geometry={
 H 0.0200000000 0.7574590974 0.5217905143
 O 0.0000000000 0.0000000000 -0.0657441568
 H 0.0000000000 -0.7574590974 0.5217905143
 }
 
 basis={
 default,cc-pVTZ-F12
 }
 set,charge=0
 set,spin=0
 hf
 CCSD(T)-F12
 Commands  initialized (763), CPU time= 0.01 sec, 617 directives.
 Default parameters read. Elapsed time= 0.05 sec

 Checking input...
 Passed
1


                                         ***  PROGRAM SYSTEM MOLPRO  ***
                                       Copyright, TTI GmbH Stuttgart, 2015
                                    Version 2019.2 linked Oct 25 2019 22:50:27


 **********************************************************************************************************************************
 LABEL *                                                                                 
  64 bit serial version                                                                  DATE: 20-Oct-20          TIME: 15:39:50  
 **********************************************************************************************************************************

 SHA1:             8dbd9ae1082e4ce945b0f27595c9eb2d4aa09004
 **********************************************************************************************************************************

 Input parameters for SORTINT:

 COMPRESS =    0.000000
 C_FINAL  =    1.000000
 DEBUG    =   -1.000000
 C_SORT1  =    0.000000
 C_SEWARD =    0.000000
 THRESH   =    0.000000
 IO       =  molpro                                                          
 SPRI     =    0.000000

Geometry recognized as XYZ


 Variable memory set to 1000000000 words,  buffer space 

 SETTING BASIS          =    CC-PVTZ-F12
 SETTING CHARGE         =     0.00000000D+00                                  
 SETTING SPIN           =     0.00000000D+00                                  


 Recomputing integrals since basis changed


 Using spherical harmonics

 Library entry H      S cc-pVTZ-F12          selected for orbital group  1
 Library entry H      P cc-pVTZ-F12          selected for orbital group  1
 Library entry H      D cc-pVTZ-F12          selected for orbital group  1
 Library entry O      S cc-pVTZ-F12          selected for orbital group  2
 Library entry O      P cc-pVTZ-F12          selected for orbital group  2
 Library entry O      D cc-pVTZ-F12          selected for orbital group  2
 Library entry O      F cc-pVTZ-F12          selected for orbital group  2


 PROGRAM * SEWARD (Integral evaluation for generally contracted gaussian basis sets)     Author: Roland Lindh, 1990

 Geometry written to block  1 of record 700


 Point group  C1  



 ATOMIC COORDINATES

 NR  ATOM    CHARGE       X              Y              Z

   1  H       1.00    0.037794522    1.431390245    0.986041166
   2  O       8.00    0.000000000    0.000000000   -0.124238451
   3  H       1.00    0.000000000   -1.431390245    0.986041166

 Bond lengths in Bohr (Angstrom)

 1-2  1.811912605  2-3  1.811518385
     ( 0.958822858)     ( 0.958614247)

 Bond angles

  1-2-3  104.39782214

 NUCLEAR CHARGE:                   10
 NUMBER OF PRIMITIVE AOS:         114
 NUMBER OF SYMMETRY AOS:          103
 NUMBER OF CONTRACTIONS:           89   (   89A   )
 NUMBER OF CORE ORBITALS:           1   (    1A   )
 NUMBER OF VALENCE ORBITALS:        6   (    6A   )


 NUCLEAR REPULSION ENERGY    9.18068913


 Eigenvalues of metric

         1 0.215E-03 0.452E-03 0.574E-03 0.691E-03 0.711E-03 0.795E-03 0.158E-02 0.202E-02


 Contracted 2-electron integrals neglected if value below      1.0D-11

        5883552. INTEGRALS WRITTEN OUT IN    1437 BLOCKS ON RECORD 1290 OF FILE 1


 NUMBER OF SORTED TWO-ELECTRON INTEGRALS:    8022015.     BUFFER LENGTH:  32768
 NUMBER OF SEGMENTS:   1  SEGMENT LENGTH:    8022015      RECORD LENGTH: 524288

 Memory used in sort:       8.58 MW

 SORT1 READ     5883552. AND WROTE     5883552. INTEGRALS IN     17 RECORDS. CPU TIME:     0.07 SEC, REAL TIME:     0.12 SEC
 SORT2 READ     5883552. AND WROTE     8022015. INTEGRALS IN      1 RECORDS. CPU TIME:     0.15 SEC, REAL TIME:     0.18 SEC

 FILE SIZES:   FILE 1:   124.5 MBYTE,  FILE 4:    71.3 MBYTE,   TOTAL:    195.8 MBYTE

 OPERATOR DM      FOR CENTER  0  COORDINATES:    0.000000    0.000000    0.000000


 **********************************************************************************************************************************
 DATASETS  * FILE   NREC   LENGTH (MB)   RECORD NAMES
              1      19       80.11       500      610      700      900      950      970     1000      129      960     1100   
                                          VAR    BASINP    GEOM    SYMINP    ZMAT    AOBASIS   BASIS     P2S    ABASIS      S 
                                         1400     1410     1200     1210     1080     1600     1650     1300     1700   
                                           T        V       H0       H01     AOSYM     SMH    MOLCAS    ERIS     OPER   

 PROGRAMS   *        TOTAL       INT
 CPU TIMES  *         0.75      0.66
 REAL TIME  *         2.04 SEC
 DISK USED  *       196.12 MB
 **********************************************************************************************************************************


 PROGRAM * RHF-SCF (CLOSED SHELL)       Authors: W. Meyer, H.-J. Werner


 NUMBER OF ELECTRONS:       5+    5-    SPACE SYMMETRY=1    SPIN SYMMETRY: Singlet 
 CONVERGENCE THRESHOLDS:    1.00E-05 (Density)    1.00E-07 (Energy)
 MAX. NUMBER OF ITERATIONS:       60
 INTERPOLATION TYPE:            DIIS
 INTERPOLATION STEPS:              2 (START)      1 (STEP)
 LEVEL SHIFTS:                  0.00 (CLOSED)  0.00 (OPEN) 



 Orbital guess generated from atomic densities. Full valence occupancy:    7

 Molecular orbital dump at record        2100.2

 Initial occupancy:   5

 ITERATION    DDIFF          GRAD             ENERGY        2-EL.EN.            DIPOLE MOMENTS         DIIS   ORB.
    1      0.000D+00      0.000D+00       -76.02699114     77.657073    0.01934    0.00007    1.13623    0    start
    2      0.000D+00      0.106D-01       -76.05393764     74.072319    0.01151   -0.00003    0.67652    1    diag
    3      0.112D-01      0.661D-02       -76.06493998     75.650445    0.01345   -0.00002    0.79030    2    diag
    4      0.382D-02      0.625D-03       -76.06512453     75.559407    0.01339   -0.00003    0.78672    3    diag
    5      0.556D-03      0.169D-03       -76.06514298     75.573379    0.01337   -0.00003    0.78542    4    diag
    6      0.193D-03      0.323D-04       -76.06514408     75.572465    0.01336   -0.00004    0.78515    5    diag
    7      0.546D-04      0.633D-05       -76.06514413     75.572607    0.01336   -0.00004    0.78504    6    diag
    8      0.116D-04      0.126D-05       -76.06514413     75.572598    0.01336   -0.00004    0.78500    7    diag
    9      0.216D-05      0.158D-06       -76.06514413     75.572585    0.01336   -0.00004    0.78500    0    orth

 Final occupancy:   5

 !RHF STATE  1.1 Energy               -76.065144132041
 Nuclear energy                         9.18068913
 One-electron energy                 -123.03212560
 Two-electron energy                   37.78629235
 Virial quotient                       -1.00100153
 !RHF STATE  1.1 Dipole moment          0.01336042    -0.00003645     0.78499942
 Dipole moment /Debye                   0.03395658    -0.00009265     1.99513884

 Orbital energies:

         1.1          2.1          3.1          4.1          5.1          6.1          7.1
    -20.565205    -1.352292    -0.716876    -0.584967    -0.510431     0.101831     0.120735


 HOMO      5.1    -0.510431 =     -13.8895eV
 LUMO      6.1     0.101831 =       2.7710eV
 LUMO-HOMO         0.612262 =      16.6605eV


 **********************************************************************************************************************************
 DATASETS  * FILE   NREC   LENGTH (MB)   RECORD NAMES
              1      19       80.11       500      610      700      900      950      970     1000      129      960     1100   
                                          VAR    BASINP    GEOM    SYMINP    ZMAT    AOBASIS   BASIS     P2S    ABASIS      S 
                                         1400     1410     1200     1210     1080     1600     1650     1300     1700   
                                           T        V       H0       H01     AOSYM     SMH    MOLCAS    ERIS     OPER   

              2       4        2.95       700     1000      520     2100   
                                         GEOM     BASIS   MCVARS     RHF  

 PROGRAMS   *        TOTAL    HF-SCF       INT
 CPU TIMES  *         1.38      0.63      0.66
 REAL TIME  *         2.78 SEC
 DISK USED  *       196.12 MB
 **********************************************************************************************************************************


 PROGRAM * CCSD (Closed-shell coupled cluster)     Authors: C. Hampel, H.-J. Werner, 1991, M. Deegan, P.J. Knowles, 1992

                                  CCSD-F12 implementation by  H.-J. Werner, 2007

                   Density fitting integral evaluation by F.R. Manby, 2003,2007, G. Knizia, 2010


 Basis set AUG-CC-PVTZ/JKFIT generated.  Number of basis functions:   196 
 Basis set CC-PVTZ-F12/OPTRI generated.  Number of basis functions:   157 
 Basis set AUG-CC-PVTZ/MP2FIT generated. Number of basis functions:   198 

 Convergence thresholds:  THRVAR = 1.00D-08  THRDEN = 1.00D-06

 CCSD(T)     terms to be evaluated (factor= 1.000)


 Number of core orbitals:           1 (   1 )
 Number of closed-shell orbitals:   4 (   4 )
 Number of external orbitals:      84 (  84 )

 Molecular orbitals read from record     2100.2  Type=RHF/CANONICAL (state 1.1)

 MP2-F12 correlation treatment (H.-J. Werner, 2006)
 ==================================================

 Using MP2-F12 with ansatz 3C(FIX)

 Using projected zeroth-order Hamiltonian (+Z)

 FOCKRIB=T FOCKRIC=T FOCKRIP=T CABSP=T CABSA=T CABSK=T CABSF=T GBC=F EBC=F DMAT=T NOFIK=T NOPAO=1 SOLVE=-1  USEPAO=0
 EXCH_A= T EXCH_B= F EXCH_C= F EXCH_P= F

 Geminal basis:    OPTFULL  GEM_TYPE=SLATER  BETA=1.0  NGEM=6

 Optimizing Gaussian exponents for each gem_beta

 Geminal optimization for beta= 1.0000
 Weight function:   m=0, omega= 1.4646

 Augmented Hessian optimization of geminal fit. Trust ratio= 0.40000
 Convergence reached after   2 iterations. Final gradient= 8.53D-16, Step= 4.26D-06, Delta= 1.28D-09

 Alpha:                 0.19532     0.81920     2.85917     9.50073    35.69989   197.79328
 Coeff:                 0.27070     0.30552     0.18297     0.10986     0.06810     0.04224


 All pairs explicitly correlated. Number of r12-pairs:           10

 Excluding core orbitals from MO domains

 AO(A)-basis ORBITAL           loaded. Number of functions:      89
 RI(R)-basis CC-PVTZ-F12/OPTRI loaded. Number of functions:     157
 DF-basis AUG-CC-PVTZ/JKFIT    loaded. Number of functions:     196

 Screening thresholds:   THRAO=  1.00D-10  THRMO=  1.00D-09  THRPROD=  1.00D-09
                         THRSW=  1.00D-05  THROV=  1.00D-12  THRAOF12= 1.00D-08

 CPU time for Fock operators                      0.29 sec

 Construction of ABS:
 Smallest eigenvalue of S          7.83E-04  (threshold= 1.00E-08)
 Ratio eigmin/eigmax               1.31E-04  (threshold= 1.00E-09)
 Smallest eigenvalue of S kept     7.83E-04  (threshold= 7.83E-04, 0 functions deleted, 157 kept)

 Construction of CABS:
 Smallest eigenvalue of S          1.86E-06  (threshold= 1.00E-08)
 Ratio eigmin/eigmax               1.86E-06  (threshold= 1.00E-09)
 Smallest eigenvalue of S kept     1.86E-06  (threshold= 1.86E-06, 0 functions deleted, 157 kept)

 CPU time for CABS singles                        0.01 sec

 CABS-singles contribution of  -0.00100820 patched into reference energy.
 New reference energy         -76.06615233

 AO(A)-basis ORBITAL           loaded. Number of functions:      89
 RI(R)-basis CC-PVTZ-F12/OPTRI loaded. Number of functions:     157
 DF-basis AUG-CC-PVTZ/MP2FIT   loaded. Number of functions:     198

 Screening thresholds:   THRAO=  1.00D-10  THRMO=  1.00D-09  THRPROD=  1.00D-09
                         THRSW=  1.00D-05  THROV=  1.00D-12  THRAOF12= 1.00D-08

 CPU time for 3-index integral evaluation         0.50 sec
 CPU time for first  half transformation          0.06 sec ( 2939.3 MFLOP/sec)
 CPU time for assembly                            0.01 sec (53512.5 MFLOP/sec)
 CPU time for tranop_f12                          0.01 sec (65192.9 MFLOP/sec)
 CPU time for f12 integrals (total)               0.64 sec, Elapsed time:      0.68 sec
 CPU time for f12 matrices (total)                0.01 sec, Elapsed time:      0.01 sec

 Diagonal F12 approximation with fixed coefficients:  TSING= 0.500,  TTRIP= 0.250 (scaled by -1/beta)

 DF-MP2-F12 energy corrections:
 ==============================
 Approx.                                    Singlet             Triplet             Total
 DF-MP2-F12/3*C(DX,FIX)                -0.025262110064     -0.003022063989     -0.028284174053
 DF-MP2-F12/3*C(FIX)                   -0.023464231338     -0.002731512183     -0.026195743521
 DF-MP2-F12/3C(FIX)                    -0.023388320845     -0.002827739009     -0.026216059854

 DF-MP2-F12 correlation energies:
 ================================
 Approx.                                    Singlet             Triplet             Ecorr            Total Energy
 DF-MP2                                -0.173861387972     -0.099228596880     -0.273089984852    -76.339242316460
 DF-MP2-F12/3*C(DX,FIX)                -0.199123498036     -0.102250660869     -0.301374158905    -76.367526490513
 DF-MP2-F12/3*C(FIX)                   -0.197325619310     -0.101960109063     -0.299285728373    -76.365438059981
 DF-MP2-F12/3C(FIX)                    -0.197249708817     -0.102056335889     -0.299306044706    -76.365458376314

 SCS-DF-MP2 energies (F_SING= 1.20000  F_TRIP= 0.62222  F_PARALLEL= 0.33333):
 ============================================================================
 SCS-DF-MP2                            -0.270375903625    -76.336528235233
 SCS-DF-MP2-F12/3*C(DX,FIX)            -0.302570831073    -76.368723162681
 SCS-DF-MP2-F12/3*C(FIX)               -0.300232588811    -76.366384920419
 SCS-DF-MP2-F12/3C(FIX)                -0.300201370689    -76.366353702297
 Symmetry transformation completed.

 Number of N-1 electron functions:               4
 Number of N-2 electron functions:              10
 Number of singly external CSFs:               336
 Number of doubly external CSFs:             56616
 Total number of CSFs:                       56953

 Length of J-op  integral file:               9.11 MB
 Length of K-op  integral file:              14.70 MB
 Length of 3-ext integral record:             0.00 MB

 Memory could be reduced to 4.12 Mwords without degradation in triples

 Integral transformation finished. Total CPU:   0.12 sec, npass=  1  Memory used:   2.09 MW

 Reference energy:                    -76.06615233

 Adding F12 terms to K(Cij), methodcc=6,  factor= 1.0

 ITER.      SQ.NORM     CORR.ENERGY   TOTAL ENERGY   ENERGY CHANGE        DEN1      VAR(S)    VAR(P)  DIIS     TIME  TIME/IT
   1      1.06144805    -0.27342942   -76.33958175    -0.00029693     0.00547167  0.72D-03  0.95D-03  1  1     1.24     0.11
   2      1.06464771    -0.27316240   -76.33931473     0.00026702    -0.00450655  0.12D-04  0.10D-03  2  2     1.34     0.11
   3      1.06576203    -0.27328628   -76.33943861    -0.00012388    -0.00077495  0.84D-05  0.64D-05  3  3     1.45     0.11
   4      1.06626719    -0.27330720   -76.33945954    -0.00002092    -0.00033790  0.41D-06  0.50D-06  4  4     1.54     0.11
   5      1.06635303    -0.27330566   -76.33945799     0.00000155    -0.00001871  0.12D-06  0.31D-07  5  5     1.65     0.11
   6      1.06637619    -0.27330440   -76.33945673     0.00000125    -0.00000384  0.99D-08  0.31D-08  6  6     1.75     0.11
   7      1.06638216    -0.27330404   -76.33945637     0.00000037    -0.00000137  0.85D-09  0.23D-09  6  1     1.83     0.11
   8      1.06638353    -0.27330409   -76.33945643    -0.00000006    -0.00000001  0.64D-10  0.25D-10  6  2     1.92     0.11

 Norm of t1 vector:      0.03493987      S-energy:    -0.00000010      T1 diagnostic:  0.00873497
                                                                       D1 diagnostic:  0.01746274

 Adding energy correction from Wij-K(Fij), methodcc=6  factor= 1.0

  CCSD correlation energy              -0.273304093876
  MP2-F12 correction (uncoupled)       -0.025093562515
  C*T doubles correction               -0.000842480685
  f12b correction                       0.004273089990


 Total CPU time for triples:      0.48 sec


 RESULTS
 =======

  Reference energy                    -76.065144132040
  F12 singles correction               -0.001008199567

 F12 singles corrections added to reference energy

  New reference energy                -76.066152331608

  F12a singlet correction              -0.023214393242
  F12a triplet correction              -0.002721649959
  F12a total correction                -0.025936043200

 F12a corrections for ansatz F12/3C(FIX) added to CCSD energy

  CCSD-F12a singlet pair energy        -0.208501275489
  CCSD-F12a triplet pair energy        -0.090738757177
  CCSD-F12a correlation energy         -0.299240137076

  Triples (T) contribution             -0.008720174807
  Total correlation energy             -0.307960311883

  CCSD-F12a total energy              -76.365392468684
  CCSD[T]-F12a energy                 -76.374403807228
  CCSD-T-F12a energy                  -76.373985888494
 !CCSD(T)-F12a total energy           -76.374112643491

 F12b corrections for ansatz F12/3C(FIX) added to CCSD(T)-F12a energy

  CCSD-F12b singlet pair energy        -0.204539747618
  CCSD-F12b triplet pair energy        -0.090427195058
  CCSD-F12b correlation energy         -0.294967047086

  Triples (T) contribution             -0.008720174807
  Total correlation energy             -0.303687221893

  CCSD-F12b total energy              -76.361119378694
  CCSD[T]-F12b energy                 -76.370130717237
  CCSD-T-F12b energy                  -76.369712798504
 !CCSD(T)-F12b total energy           -76.369839553501

 Timing summary (sec):

 STEP                 CPU(USER)    SYS     CPU(TOT)    WALL
 Transformation          0.12      0.02      0.14      0.14
 CCSD iterations         0.84      0.08      0.92      0.91
 Triples                 0.48      0.01      0.49      0.48
 MP2-F12                 0.97      0.04      1.01      1.02
 F12b energy             0.08      0.00      0.08      0.09

 Program statistics:

 Available memory in ccsd:               999999881
 Min. memory needed in ccsd:                269472
 Max. memory used in ccsd:                  308684
 Max. memory used in cckext:                227914 ( 9 integral passes)



 **********************************************************************************************************************************
 DATASETS  * FILE   NREC   LENGTH (MB)   RECORD NAMES
              1      20       90.79       500      610      700      900      950      970     1000      129      960     1100   
                                          VAR    BASINP    GEOM    SYMINP    ZMAT    AOBASIS   BASIS     P2S    ABASIS      S 
                                         1400     1410     1200     1210     1080     1600     1650     1300     1700     1380   
                                           T        V       H0       H01     AOSYM     SMH    MOLCAS    ERIS     OPER     JKOP   

              2       6        3.11       700     1000      520     2100     7360     7350   
                                         GEOM     BASIS   MCVARS     RHF    F12ABS    EF12   

 PROGRAMS   *        TOTAL   CCSD(T)    HF-SCF       INT
 CPU TIMES  *         3.92      2.54      0.63      0.66
 REAL TIME  *         7.27 SEC
 DISK USED  *       196.12 MB
 **********************************************************************************************************************************

 CCSD(T)-F12/cc-pVTZ-F12 energy=    -76.369839553501

     CCSD(T)-F12          HF-SCF
    -76.36983955    -76.06514413
 **********************************************************************************************************************************
 Molpro calculation terminated
