
 Primary working directories    : /tmp/r2518/625767.maple
 Secondary working directories  : /tmp/r2518/625767.maple
 Wavefunction directory         : /ddn/home1/r2518/wfu/
 Main file repository           : /tmp/r2518/625767.maple/

 SHA1      : d5ffa45e93fdbca01ffc919aa182cfdae0147319
 NAME      : 2015.1.35
 ARCHNAME  : linux/x86_64
 FC        : /opt/intel/composer_xe_2015.1.133/bin/intel64/ifort
 BLASLIB   : -Wl,-_start-group /opt/intel/mkl/lib/intel64/libmkl_intel_ilp64.a /opt/intel/mkl/lib/intel64/libmkl_intel_thread.a /opt/intel/mkl/lib/intel64/libmkl_core.a -Wl,-_end-group
 id        : olemiss

 Nodes     nprocs
 cn048        1

 Using customized tuning parameters: mindgm=1; mindgv=20; mindgc=4; mindgr=1; noblas=0; minvec=7
 default implementation of scratch files=df  

 memory,312,m                                                                    ! 30GB 12procs
 
 gthresh,energy=1.d-12,zero=1.d-22,oneint=1.d-22,twoint=1.d-22;
 gthresh,optgrad=1.d-8,optstep=1.d-8;
 nocompress;
 
 geometry={
 AL -2.2912389450        0.0000000000        0.0000000000
 AL 2.2912389450        0.0000000000        0.0000000000
 O 0.0000000000        2.4265683680        0.0000000000
 O 0.0000000000       -2.4265683680        0.0000000000
 }
 
 basis={
 default,cc-pVDZ-F12
 }
 set,charge=0
 set,spin=0
 hf,accuracy=16,energy=1.0d-10
 {MP2,thrden=1.0d-8,thrvar=1.0d-10}

 Variables initialized (889), CPU time= 0.00 sec
 Commands  initialized (702), CPU time= 0.01 sec, 572 directives.
 Default parameters read. Elapsed time= 0.06 sec

 Checking input...
 Passed
1


                                         ***  PROGRAM SYSTEM MOLPRO  ***
                                       Copyright, TTI GmbH Stuttgart, 2015
                                    Version 2015.1 linked Jul  9 2018 13:16:40


 **********************************************************************************************************************************
 LABEL *                                                                                 
  64 bit serial version                                                                  DATE: 09-Jun-20          TIME: 13:44:29  
 **********************************************************************************************************************************

 SHA1:             d5ffa45e93fdbca01ffc919aa182cfdae0147319
 **********************************************************************************************************************************

 THRESHOLDS:

 ZERO    =  1.00D-22  ONEINT  =  1.00D-22  TWOINT  =  1.00D-22  PREFAC  =  1.00D-14  LOCALI  =  1.00D-09  EORDER  =  1.00D-04
 ENERGY  =  1.00D-12  ETEST   =  0.00D+00  EDENS   =  0.00D+00  THRDEDEF=  1.00D-06  GRADIENT=  1.00D-02  STEP    =  1.00D-03
 ORBITAL =  1.00D-05  CIVEC   =  1.00D-05  COEFF   =  1.00D-04  PRINTCI =  5.00D-02  PUNCHCI =  9.90D+01  OPTGRAD =  3.00D-04
 OPTENERG=  1.00D-06  OPTSTEP =  3.00D-04  THRGRAD =  1.00D-10  COMPRESS=  1.00D-11  VARMIN  =  1.00D-07  VARMAX  =  1.00D-03
 THRDOUB =  0.00D+00  THRDIV  =  1.00D-05  THRRED  =  1.00D-07  THRPSP  =  1.00D+00  THRDC   =  1.00D-10  THRCS   =  1.00D-10
 THRNRM  =  1.00D-08  THREQ   =  0.00D+00  THRDE   =  1.00D+00  THRREF  =  1.00D-05  SPARFAC =  1.00D+00  THRDLP  =  1.00D-07
 THRDIA  =  1.00D-10  THRDLS  =  1.00D-07  THRGPS  =  0.00D+00  THRKEX  =  0.00D+00  THRDIS  =  2.00D-01  THRVAR  =  1.00D-10
 THRLOC  =  1.00D-06  THRGAP  =  1.00D-06  THRLOCT = -1.00D+00  THRGAPT = -1.00D+00  THRORB  =  1.00D-06  THRMLTP =  0.00D+00
 THRCPQCI=  1.00D-10  KEXTA   =  0.00D+00  THRCOARS=  0.00D+00  SYMTOL  =  1.00D-06  GRADTOL =  1.00D-06  THROVL  =  1.00D-08
 THRORTH =  1.00D-08  GRID    =  1.00D-06  GRIDMAX =  1.00D-03  DTMAX   =  0.00D+00  THROCCDE=  1.00D-01  THROCCDE=  1.00D-01



 THRESHOLDS:

 ZERO    =  1.00D-22  ONEINT  =  1.00D-22  TWOINT  =  1.00D-22  PREFAC  =  1.00D-14  LOCALI  =  1.00D-09  EORDER  =  1.00D-04
 ENERGY  =  1.00D-12  ETEST   =  0.00D+00  EDENS   =  0.00D+00  THRDEDEF=  1.00D-06  GRADIENT=  1.00D-02  STEP    =  1.00D-03
 ORBITAL =  1.00D-05  CIVEC   =  1.00D-05  COEFF   =  1.00D-04  PRINTCI =  5.00D-02  PUNCHCI =  9.90D+01  OPTGRAD =  1.00D-08
 OPTENERG=  1.00D-06  OPTSTEP =  1.00D-08  THRGRAD =  1.00D-10  COMPRESS=  1.00D-11  VARMIN  =  1.00D-07  VARMAX  =  1.00D-03
 THRDOUB =  0.00D+00  THRDIV  =  1.00D-05  THRRED  =  1.00D-07  THRPSP  =  1.00D+00  THRDC   =  1.00D-10  THRCS   =  1.00D-10
 THRNRM  =  1.00D-08  THREQ   =  0.00D+00  THRDE   =  1.00D+00  THRREF  =  1.00D-05  SPARFAC =  1.00D+00  THRDLP  =  1.00D-07
 THRDIA  =  1.00D-10  THRDLS  =  1.00D-07  THRGPS  =  0.00D+00  THRKEX  =  0.00D+00  THRDIS  =  2.00D-01  THRVAR  =  1.00D-10
 THRLOC  =  1.00D-06  THRGAP  =  1.00D-06  THRLOCT = -1.00D+00  THRGAPT = -1.00D+00  THRORB  =  1.00D-06  THRMLTP =  0.00D+00
 THRCPQCI=  1.00D-10  KEXTA   =  0.00D+00  THRCOARS=  0.00D+00  SYMTOL  =  1.00D-06  GRADTOL =  1.00D-06  THROVL  =  1.00D-08
 THRORTH =  1.00D-08  GRID    =  1.00D-06  GRIDMAX =  1.00D-03  DTMAX   =  0.00D+00  THROCCDE=  1.00D-01  THROCCDE=  1.00D-01



 Input parameters for SORTINT:

 COMPRESS =    0.000000
 C_FINAL  =    1.000000
 DEBUG    =   -1.000000
 C_SORT1  =    0.000000
 C_SEWARD =    0.000000
 THRESH   =    0.000000
 IO       =  molpro                                                          
 SPRI     =    0.000000

Geometry recognized as XYZ


 Variable memory set to  312000000 words,  buffer space   230000 words

 SETTING BASIS          =    CC-PVDZ-F12
 SETTING CHARGE         =     0.00000000D+00                                  
 SETTING SPIN           =     0.00000000D+00                                  


 Recomputing integrals since basis changed


 Using spherical harmonics

 Library entry AL     S cc-pVDZ-F12          selected for orbital group  1
 Library entry AL     P cc-pVDZ-F12          selected for orbital group  1
 Library entry AL     D cc-pVDZ-F12          selected for orbital group  1
 Library entry O      S cc-pVDZ-F12          selected for orbital group  2
 Library entry O      P cc-pVDZ-F12          selected for orbital group  2
 Library entry O      D cc-pVDZ-F12          selected for orbital group  2


 PROGRAM * SEWARD (Integral evaluation for generally contracted gaussian basis sets)     Author: Roland Lindh, 1990

 Geometry written to block  1 of record 700


 Point group  D2h 



 ATOMIC COORDINATES

 NR  ATOM    CHARGE       X              Y              Z

   1  AL     13.00   -4.329814092    0.000000000    0.000000000
   2  AL     13.00    4.329814092    0.000000000    0.000000000
   3  O       8.00    0.000000000    4.585549638    0.000000000
   4  O       8.00    0.000000000   -4.585549638    0.000000000

 NUCLEAR CHARGE:                   42
 NUMBER OF PRIMITIVE AOS:         222
 NUMBER OF SYMMETRY AOS:          212
 NUMBER OF CONTRACTIONS:          138   (  32Ag  +  25B3u +  23B2u +  16B1g +  16B1u +  11B2g +  10B3g +   5Au  )
 NUMBER OF CORE ORBITALS:          12   (   4Ag  +   3B3u +   2B2u +   1B1g +   1B1u +   1B2g +   0B3g +   0Au  )
 NUMBER OF VALENCE ORBITALS:       16   (   4Ag  +   3B3u +   3B2u +   2B1g +   2B1u +   1B2g +   1B3g +   0Au  )


 NUCLEAR REPULSION ENERGY   92.45581438


 Eigenvalues of metric

         1 0.370E-02 0.429E-02 0.726E-02 0.825E-02 0.320E-01 0.377E-01 0.751E-01 0.117E+00
         2 0.313E-02 0.429E-02 0.656E-02 0.177E-01 0.345E-01 0.824E-01 0.112E+00 0.217E+00
         3 0.428E-02 0.772E-02 0.902E-02 0.341E-01 0.466E-01 0.991E-01 0.180E+00 0.282E+00
         4 0.428E-02 0.708E-02 0.345E-01 0.879E-01 0.125E+00 0.232E+00 0.289E+00 0.420E+00
         5 0.430E-02 0.852E-02 0.357E-01 0.113E+00 0.266E+00 0.362E+00 0.393E+00 0.426E+00
         6 0.820E-02 0.355E-01 0.228E+00 0.302E+00 0.409E+00 0.609E+00 0.915E+00 0.159E+01
         7 0.430E-02 0.122E+00 0.277E+00 0.409E+00 0.429E+00 0.869E+00 0.119E+01 0.159E+01
         8 0.319E+00 0.412E+00 0.927E+00 0.159E+01 0.175E+01


 Contracted 2-electron integrals neglected if value below      1.0D-22

        5697451. INTEGRALS WRITTEN OUT IN    1392 BLOCKS ON RECORD 1290 OF FILE 1


 NUMBER OF SORTED TWO-ELECTRON INTEGRALS:    6092953.     BUFFER LENGTH:  32768
 NUMBER OF SEGMENTS:   1  SEGMENT LENGTH:    6092953      RECORD LENGTH: 524288

 Memory used in sort:       6.65 MW

 SORT1 READ     5697451. AND WROTE     5858062. INTEGRALS IN     17 RECORDS. CPU TIME:     0.30 SEC, REAL TIME:     0.33 SEC
 SORT2 READ     5858062. AND WROTE     6092953. INTEGRALS IN      1 RECORDS. CPU TIME:     0.17 SEC, REAL TIME:     0.25 SEC

 FILE SIZES:   FILE 1:   111.6 MBYTE,  FILE 4:    71.3 MBYTE,   TOTAL:    182.9 MBYTE

 OPERATOR DM      FOR CENTER  0  COORDINATES:    0.000000    0.000000    0.000000


 **********************************************************************************************************************************
 DATASETS  * FILE   NREC   LENGTH (MB)   RECORD NAMES
              1      19       69.39       500      610      700      900      950      970     1000      129      960     1100   
                                          VAR    BASINP    GEOM    SYMINP    ZMAT    AOBASIS   BASIS     P2S    ABASIS      S 
                                         1400     1410     1200     1210     1080     1600     1650     1300     1700   
                                           T        V       H0       H01     AOSYM     SMH    MOLCAS    ERIS     OPER   

 PROGRAMS   *        TOTAL       INT
 CPU TIMES  *         1.76      1.65
 REAL TIME  *         2.33 SEC
 DISK USED  *       183.30 MB      
 **********************************************************************************************************************************


 PROGRAM * RHF-SCF (CLOSED SHELL)       Authors: W. Meyer, H.-J. Werner


 NUMBER OF ELECTRONS:      21+   21-
 CONVERGENCE THRESHOLDS:    1.00E-08 (Density)    1.00E-10 (Energy)
 MAX. NUMBER OF ITERATIONS:       60
 INTERPOLATION TYPE:            DIIS
 INTERPOLATION STEPS:              2 (START)      1 (STEP)
 LEVEL SHIFTS:                  0.00 (CLOSED)  0.00 (OPEN) 



 Orbital guess generated from atomic densities. Full valence occupancy:    8   6   5   3   3   2   1   0


 Molecular orbital dump at record        2100.2

 Initial occupancy:   7   4   4   2   2   1   1   0

 ITERATION    DDIFF          GRAD             ENERGY        2-EL.EN.            DIPOLE MOMENTS         DIIS   ORB.
    1      0.000D+00      0.000D+00      -631.99968033    691.703940    0.00000    0.00000    0.00000    0    start
    2      0.000D+00      0.378D-01      -621.06738769    653.456304    0.00000    0.00000    0.00000    1    diag
    3      0.179D+00      0.870D-01      -632.53945301    687.072469    0.00000    0.00000    0.00000    2    diag
    4      0.169D+00      0.267D-01      -632.94735082    684.290347    0.00000    0.00000    0.00000    3    diag
    5      0.313D-01      0.168D-01      -633.06752752    682.843178    0.00000    0.00000    0.00000    4    diag
    6      0.174D-01      0.114D-01      -633.11096091    681.369962    0.00000    0.00000    0.00000    5    diag
    7      0.775D-02      0.730D-02      -633.13936175    678.901567    0.00000    0.00000    0.00000    6    diag
    8      0.937D-02      0.880D-03      -633.14009972    678.509617    0.00000    0.00000    0.00000    7    diag
    9      0.223D-02      0.259D-03      -633.14013036    678.542114    0.00000    0.00000    0.00000    8    diag
   10      0.441D-03      0.111D-03      -633.14013718    678.564851    0.00000    0.00000    0.00000    9    orth
   11      0.243D-03      0.279D-04      -633.14013871    678.561768    0.00000    0.00000    0.00000    9    diag
   12      0.114D-03      0.177D-04      -633.14013907    678.564484    0.00000    0.00000    0.00000    9    diag
   13      0.602D-04      0.359D-05      -633.14013909    678.564646    0.00000    0.00000    0.00000    9    diag
   14      0.135D-04      0.925D-06      -633.14013909    678.564823    0.00000    0.00000    0.00000    9    diag
   15      0.388D-05      0.161D-06      -633.14013909    678.564789    0.00000    0.00000    0.00000    9    diag
   16      0.532D-06      0.270D-07      -633.14013909    678.564791    0.00000    0.00000    0.00000    9    diag
   17      0.116D-06      0.522D-08      -633.14013909    678.564792    0.00000    0.00000    0.00000    9    diag
   18      0.186D-07      0.991D-09      -633.14013909    678.564792    0.00000    0.00000    0.00000    9    diag
   19      0.423D-08      0.219D-09      -633.14013909    678.564792    0.00000    0.00000    0.00000    0    orth

 Final occupancy:   7   4   4   2   2   1   1   0

 !RHF STATE 1.1 Energy               -633.140139089423
 Nuclear energy                        92.45581438
 One-electron energy                -1064.87834932
 Two-electron energy                  339.28239585
 Virial quotient                       -1.00083735
 !RHF STATE 1.1 Dipole moment           0.00000000     0.00000000     0.00000000
 Dipole moment /Debye                   0.00000000     0.00000000     0.00000000

 Orbital energies:

         1.1          2.1          3.1          4.1          5.1          6.1          7.1          8.1          9.1
    -58.578029   -20.571161    -4.982684    -3.289282    -1.144152    -0.472989    -0.414564    -0.002504     0.042323

         1.2          2.2          3.2          4.2          5.2          6.2
    -58.578029    -4.982685    -3.289281    -0.434660    -0.034279     0.013168

         1.3          2.3          3.3          4.3          5.3          6.3
    -20.571163    -3.288517    -1.144448    -0.453563    -0.010028     0.057745

         1.4          2.4          3.4          4.4
     -3.288517    -0.186827     0.041070     0.075285

         1.5          2.5          3.5          4.5
     -3.289429    -0.453944    -0.009416     0.050573

         1.6          2.6          3.6
     -3.289428     0.000405     0.055351

         1.7          2.7          3.7
     -0.453428     0.192587     0.338641

         1.8          2.8
      0.298138     1.019916

 HOMO      2.4    -0.186827 =      -5.0838eV
 LUMO      5.2    -0.034279 =      -0.9328eV
 LUMO-HOMO         0.152548 =       4.1510eV


 **********************************************************************************************************************************
 DATASETS  * FILE   NREC   LENGTH (MB)   RECORD NAMES
              1      19       69.39       500      610      700      900      950      970     1000      129      960     1100   
                                          VAR    BASINP    GEOM    SYMINP    ZMAT    AOBASIS   BASIS     P2S    ABASIS      S 
                                         1400     1410     1200     1210     1080     1600     1650     1300     1700   
                                           T        V       H0       H01     AOSYM     SMH    MOLCAS    ERIS     OPER   

              2       4        2.88       700     1000      520     2100   
                                         GEOM     BASIS   MCVARS     RHF  

 PROGRAMS   *        TOTAL        HF       INT
 CPU TIMES  *         2.07      0.30      1.65
 REAL TIME  *         2.76 SEC
 DISK USED  *       183.30 MB      
 **********************************************************************************************************************************


 PROGRAM * MP2 (Closed-shell)     Authors: C. Hampel, H.-J. Werner, 1991, M. Deegan, P.J. Knowles, 1992


 Convergence thresholds:  THRVAR = 1.00D-10  THRDEN = 1.00D-08

 Number of core orbitals:          12 (   4   3   2   1   1   1   0   0 )
 Number of closed-shell orbitals:   9 (   3   1   2   1   1   0   1   0 )
 Number of external orbitals:     117 (  25  21  19  14  14  10   9   5 )

 Molecular orbitals read from record     2100.2  Type=RHF/CANONICAL (state 1.1)

 Number of N-1 electron functions:               9
 Number of N-2 electron functions:              45
 Number of singly external CSFs:               171
 Number of doubly external CSFs:             72939
 Total number of CSFs:                       73111

 Length of J-op  integral file:               0.00 MB
 Length of K-op  integral file:               0.24 MB

 Integral transformation finished. Total CPU:   0.04 sec, npass=  1  Memory used:   0.18 MW

 Memory needed for MP2:                      0.01 MW

 SCS-MP2 correlation energy:           -0.576232138581   (PS=  1.200000  PT=  0.333333)
 SCS-MP2 total energy:               -633.716371228004


  Reference energy                   -633.140139089423
  MP2 singlet pair energy              -0.382899832924
  MP2 triplet pair energy              -0.187637687795
  MP2 correlation energy               -0.570537520719

 !MP2 total energy                   -633.710676610142


 **********************************************************************************************************************************
 DATASETS  * FILE   NREC   LENGTH (MB)   RECORD NAMES
              1      20       70.88       500      610      700      900      950      970     1000      129      960     1100   
                                          VAR    BASINP    GEOM    SYMINP    ZMAT    AOBASIS   BASIS     P2S    ABASIS      S 
                                         1400     1410     1200     1210     1080     1600     1650     1300     1700     1380   
                                           T        V       H0       H01     AOSYM     SMH    MOLCAS    ERIS     OPER     JKOP   

              2       4        2.88       700     1000      520     2100   
                                         GEOM     BASIS   MCVARS     RHF  

 PROGRAMS   *        TOTAL       MP2        HF       INT
 CPU TIMES  *         2.16      0.10      0.30      1.65
 REAL TIME  *         2.89 SEC
 DISK USED  *       183.30 MB      
 **********************************************************************************************************************************

 MP2/cc-pVDZ-F12 energy=   -633.710676610142

        MP2             HF-SCF  
   -633.71067661   -633.14013909
 **********************************************************************************************************************************
 Molpro calculation terminated
 Variable memory released
