
 Primary working directories    : /tmp/r2518/384671.sequoia
 Secondary working directories  : /tmp/r2518/384671.sequoia
 Wavefunction directory         : /ddn/home1/r2518/wfu/
 Main file repository           : /tmp/r2518/384671.sequoia/

 SHA1      : 2c68d29c09da70e1723824271fadde4bcd5f07a0
 ARCHNAME  : Linux/x86_64
 FC        : /usr/local/apps/intel/11.1/073/bin/intel64/ifort
 FCVERSION : 11.1
 BLASLIB   : -L/opt/intel/mkl/10.2.4.032/lib/em64t -lmkl_intel_ilp64 -lmkl_sequential -lmkl_core
 id        : olemiss

 Nodes     nprocs
 n026         1

 Using customized tuning parameters: mindgm=1; mindgv=20; mindgc=4; mindgr=1; noblas=0; minvec=7
 default implementation of scratch files=df  

 memory,995,m                                                                    ! 30GB 12procs
 
 gthresh,energy=1.d-12,zero=1.d-22,oneint=1.d-22,twoint=1.d-22;
 gthresh,optgrad=1.d-8,optstep=1.d-8;
 nocompress;
 
 geometry={
 X
 X 1 1.0
 Al 1 AlX 2 90.0
 Al 1 AlX 2 90.0 3 180.0
 O  1 OX  2 90.0  3 90.0
 O  1 OX  2 90.0  4 90.0
 }
 ALX=                 1.20291855 ANG
 OX=                  1.26606704 ANG
 basis={
 default,cc-pvdz-f12
 }
 set,charge=0
 set,spin=0
 hf,accuracy=16,energy=1.0d-10
 {ccsd(t)-f12,thrden=1.0d-8,thrvar=1.0d-10;orbital,IGNORE_ERROR;}
 {optg,grms=1.d-8,srms=1.d-8}

 Variables initialized (766), CPU time= 0.01 sec
 Commands  initialized (545), CPU time= 0.01 sec, 513 directives.
 Default parameters read. Elapsed time= 0.18 sec

 Checking input...
 Passed
1


                                         ***  PROGRAM SYSTEM MOLPRO  ***
                         Copyright, University College Cardiff Consultants Limited, 2008

                                    Version 2012.1 linked 28 Mar 2013 16:25:36


 **********************************************************************************************************************************
 LABEL *                                                                                 
 Linux-4.4.180-94.100-default/n026(x86_64) 64 bit serial version                         DATE: 18-Jun-20          TIME: 16:09:50  
 **********************************************************************************************************************************

 SHA1:             2c68d29c09da70e1723824271fadde4bcd5f07a0
 **********************************************************************************************************************************

 THRESHOLDS:

 ZERO    =  1.00D-22  ONEINT  =  1.00D-22  TWOINT  =  1.00D-22  PREFAC  =  1.00D-14  LOCALI  =  1.00D-09  EORDER  =  1.00D-04
 ENERGY  =  1.00D-12  ETEST   =  0.00D+00  EDENS   =  0.00D+00  THRDEDEF=  1.00D-06  GRADIENT=  1.00D-02  STEP    =  1.00D-03
 ORBITAL =  1.00D-05  CIVEC   =  1.00D-05  COEFF   =  1.00D-04  PRINTCI =  5.00D-02  PUNCHCI =  9.90D+01  OPTGRAD =  3.00D-04
 OPTENERG=  1.00D-06  OPTSTEP =  3.00D-04  THRGRAD =  1.00D-10  COMPRESS=  1.00D-11  VARMIN  =  1.00D-07  VARMAX  =  1.00D-03
 THRDOUB =  0.00D+00  THRDIV  =  1.00D-05  THRRED  =  1.00D-07  THRPSP  =  1.00D+00  THRDC   =  1.00D-10  THRCS   =  1.00D-10
 THRNRM  =  1.00D-08  THREQ   =  0.00D+00  THRDE   =  1.00D+00  THRREF  =  1.00D-05  SPARFAC =  1.00D+00  THRDLP  =  1.00D-07
 THRDIA  =  1.00D-10  THRDLS  =  1.00D-07  THRGPS  =  0.00D+00  THRKEX  =  0.00D+00  THRDIS  =  2.00D-01  THRVAR  =  1.00D-10
 THRLOC  =  1.00D-06  THRGAP  =  1.00D-06  THRLOCT = -1.00D+00  THRGAPT = -1.00D+00  THRORB  =  1.00D-06  THRMLTP =  0.00D+00
 THRCPQCI=  1.00D-10  KEXTA   =  0.00D+00  THRCOARS=  0.00D+00  SYMTOL  =  1.00D-06  GRADTOL =  1.00D-06  THROVL  =  1.00D-08
 THRORTH =  1.00D-08  GRID    =  1.00D-06  GRIDMAX =  1.00D-03  DTMAX   =  0.00D+00  THROCCDE=  1.00D-01  THROCCDE=  1.00D-01



 THRESHOLDS:

 ZERO    =  1.00D-22  ONEINT  =  1.00D-22  TWOINT  =  1.00D-22  PREFAC  =  1.00D-14  LOCALI  =  1.00D-09  EORDER  =  1.00D-04
 ENERGY  =  1.00D-12  ETEST   =  0.00D+00  EDENS   =  0.00D+00  THRDEDEF=  1.00D-06  GRADIENT=  1.00D-02  STEP    =  1.00D-03
 ORBITAL =  1.00D-05  CIVEC   =  1.00D-05  COEFF   =  1.00D-04  PRINTCI =  5.00D-02  PUNCHCI =  9.90D+01  OPTGRAD =  1.00D-08
 OPTENERG=  1.00D-06  OPTSTEP =  1.00D-08  THRGRAD =  1.00D-10  COMPRESS=  1.00D-11  VARMIN  =  1.00D-07  VARMAX  =  1.00D-03
 THRDOUB =  0.00D+00  THRDIV  =  1.00D-05  THRRED  =  1.00D-07  THRPSP  =  1.00D+00  THRDC   =  1.00D-10  THRCS   =  1.00D-10
 THRNRM  =  1.00D-08  THREQ   =  0.00D+00  THRDE   =  1.00D+00  THRREF  =  1.00D-05  SPARFAC =  1.00D+00  THRDLP  =  1.00D-07
 THRDIA  =  1.00D-10  THRDLS  =  1.00D-07  THRGPS  =  0.00D+00  THRKEX  =  0.00D+00  THRDIS  =  2.00D-01  THRVAR  =  1.00D-10
 THRLOC  =  1.00D-06  THRGAP  =  1.00D-06  THRLOCT = -1.00D+00  THRGAPT = -1.00D+00  THRORB  =  1.00D-06  THRMLTP =  0.00D+00
 THRCPQCI=  1.00D-10  KEXTA   =  0.00D+00  THRCOARS=  0.00D+00  SYMTOL  =  1.00D-06  GRADTOL =  1.00D-06  THROVL  =  1.00D-08
 THRORTH =  1.00D-08  GRID    =  1.00D-06  GRIDMAX =  1.00D-03  DTMAX   =  0.00D+00  THROCCDE=  1.00D-01  THROCCDE=  1.00D-01



 Input parameters for SORTINT:

 COMPRESS =    0.000000
 C_FINAL  =    1.000000
 DEBUG    =   -1.000000
 C_SORT1  =    0.000000
 C_SEWARD =    0.000000
 THRESH   =    0.000000
 IO       =  molpro                                                          
 SPRI     =    0.000000
 SETTING ALX            =         1.20291855  ANG                             
 SETTING OX             =         1.26606704  ANG                             

 Variable memory set to  995000000 words,  buffer space   230000 words

 SETTING BASIS          =    CC-PVDZ-F12
 SETTING CHARGE         =         0.00000000                                  
 SETTING SPIN           =         0.00000000                                  


 Recomputing integrals since basis changed


 Using spherical harmonics

 Library entry AL     S cc-pVDZ-F12          selected for orbital group  1
 Library entry AL     P cc-pVDZ-F12          selected for orbital group  1
 Library entry AL     D cc-pVDZ-F12          selected for orbital group  1
 Library entry O      S cc-pVDZ-F12          selected for orbital group  2
 Library entry O      P cc-pVDZ-F12          selected for orbital group  2
 Library entry O      D cc-pVDZ-F12          selected for orbital group  2

1PROGRAM * SEWARD (Integral evaluation for generally contracted gaussian basis sets)     Author: Roland Lindh, 1990

 Geometry written to block  1 of record 700

 Orientation using atomic masses  
 Molecule type: Asymmetric top,     Order of principal axis = 2
 Symmetry elements: X,Y,Z
 Rotational constants:       3.9062513      6.4721416      9.8530364 GHz  (calculated with average atomic masses)

 Point group  D2h 



 ATOMIC COORDINATES

 NR  ATOM    CHARGE       X              Y              Z

   1  AL     13.00    0.000000000    0.000000000    2.273186618
   2  AL     13.00    0.000000000    0.000000000   -2.273186618
   3  O       8.00    0.000000000    2.392519970    0.000000000
   4  O       8.00    0.000000000   -2.392519970    0.000000000

 Bond lengths in Bohr (Angstrom)

 1-2  4.546373236  1-3  3.300231690  1-4  3.300231690  2-3  3.300231690  2-4  3.300231690
     ( 2.405837100)     ( 1.746407395)     ( 1.746407395)     ( 1.746407395)     ( 1.746407395)

 Bond angles

  1-2-3   46.46511722   1-2-4   46.46511722   1-3-2   87.06976555   1-4-2   87.06976555

  2-1-3   46.46511722   2-1-4   46.46511722   3-1-4   92.93023445   3-2-4   92.93023445

 NUCLEAR CHARGE:                   42
 NUMBER OF PRIMITIVE AOS:         222
 NUMBER OF SYMMETRY AOS:          212
 NUMBER OF CONTRACTIONS:          138   (  32Ag  +  16B3u +  23B2u +  10B1g +  25B1u +  11B2g +  16B3g +   5Au  )
 NUMBER OF CORE ORBITALS:          12   (   4Ag  +   1B3u +   2B2u +   0B1g +   3B1u +   1B2g +   1B3g +   0Au  )
 NUMBER OF VALENCE ORBITALS:       16   (   4Ag  +   2B3u +   3B2u +   1B1g +   3B1u +   1B2g +   2B3g +   0Au  )


 NUCLEAR REPULSION ENERGY  176.59926208


 Eigenvalues of metric

         1 0.689E-03 0.134E-02 0.429E-02 0.589E-02 0.774E-02 0.316E-01 0.418E-01 0.625E-01
         2 0.425E-02 0.670E-02 0.333E-01 0.619E-01 0.103E+00 0.242E+00 0.319E+00 0.452E+00
         3 0.126E-02 0.385E-02 0.427E-02 0.842E-02 0.324E-01 0.468E-01 0.709E-01 0.976E-01
         4 0.427E-02 0.959E-01 0.131E+00 0.308E+00 0.373E+00 0.548E+00 0.108E+01 0.152E+01
         5 0.733E-03 0.102E-02 0.246E-02 0.420E-02 0.105E-01 0.313E-01 0.339E-01 0.395E-01
         6 0.684E-02 0.347E-01 0.789E-01 0.140E+00 0.315E+00 0.430E+00 0.666E+00 0.115E+01
         7 0.194E-02 0.431E-02 0.544E-02 0.288E-01 0.431E-01 0.687E-01 0.121E+00 0.173E+00
         8 0.280E+00 0.296E+00 0.827E+00 0.123E+01 0.210E+01


 Contracted 2-electron integrals neglected if value below      1.0D-22

        5878685. INTEGRALS WRITTEN OUT IN  1436 BLOCKS ON RECORD 1290 OF FILE 1


 NUMBER OF SORTED TWO-ELECTRON INTEGRALS:    6092953.     BUFFER LENGTH:  32768
 NUMBER OF SEGMENTS:   1  SEGMENT LENGTH:    6092953      RECORD LENGTH: 524288

 Memory used in sort:       6.65 MW

 SORT1 READ     5878685. AND WROTE     6043813. INTEGRALS IN     18 RECORDS. CPU TIME:     0.40 SEC, REAL TIME:     1.06 SEC
 SORT2 READ     6043813. AND WROTE     6092953. INTEGRALS IN      1 RECORDS. CPU TIME:     0.43 SEC, REAL TIME:     1.15 SEC

 FILE SIZES:   FILE 1:   102.1 MBYTE,  FILE 4:    75.5 MBYTE,   TOTAL:    177.7 MBYTE

 OPERATOR DM      FOR CENTER  0  COORDINATES:    0.000000    0.000000    0.000000


 **********************************************************************************************************************************
 DATASETS  * FILE   NREC   LENGTH (MB)   RECORD NAMES
              1      19       57.67       500      610      700      900      950      970     1000      129      960     1100   
                                          VAR    BASINP    GEOM    SYMINP    ZMAT    AOBASIS   BASIS     P2S    ABASIS      S 
                                         1400     1410     1200     1210     1080     1600     1650     1300     1700   
                                           T        V       H0       H01     AOSYM     SMH    MOLCAS    ERIS     OPER   

 PROGRAMS   *        TOTAL       INT
 CPU TIMES  *         3.54      3.40
 REAL TIME  *         8.27 SEC
 DISK USED  *       178.03 MB      
 **********************************************************************************************************************************

1PROGRAM * RHF-SCF (CLOSED SHELL)       Authors: W. Meyer, H.-J. Werner


 NUMBER OF ELECTRONS:      21+   21-
 CONVERGENCE THRESHOLDS:    1.00E-06 (Density)    1.00E-10 (Energy)
 MAX. NUMBER OF ITERATIONS:       60
 INTERPOLATION TYPE:            DIIS
 INTERPOLATION STEPS:              2 (START)      1 (STEP)
 LEVEL SHIFTS:                  0.00 (CLOSED)  0.00 (OPEN) 



 Orbital guess generated from atomic densities. Full valence occupancy:    8   3   5   1   6   2   3   0


 Molecular orbital dump at record        2100.2

 Initial alpha occupancy:   7   2   4   1   4   1   2   0
 Initial beta  occupancy:   7   2   4   1   4   1   2   0
 Wave function symmetry:    1

 ITERATION    DDIFF          GRAD             ENERGY        2-EL.EN.            DIPOLE MOMENTS         DIIS   ORB.
    1      0.000D+00      0.000D+00      -633.50140082    858.141031    0.00000    0.00000    0.00000    0    start
    2      0.000D+00      0.230D-01      -633.56196452    839.815358    0.00000    0.00000    0.00000    1    diag
    3      0.466D-01      0.216D-01      -633.69735677    848.075561    0.00000    0.00000    0.00000    2    diag
    4      0.195D-01      0.987D-03      -633.69842140    848.105493    0.00000    0.00000    0.00000    3    diag
    5      0.328D-02      0.244D-03      -633.69851608    848.082426    0.00000    0.00000    0.00000    4    diag
    6      0.113D-02      0.737D-04      -633.69852223    848.077270    0.00000    0.00000    0.00000    5    diag
    7      0.380D-03      0.134D-04      -633.69852249    848.075326    0.00000    0.00000    0.00000    6    diag
    8      0.651D-04      0.510D-05      -633.69852252    848.076692    0.00000    0.00000    0.00000    7    diag
    9      0.170D-04      0.161D-05      -633.69852253    848.076835    0.00000    0.00000    0.00000    8    diag
   10      0.827D-05      0.359D-06      -633.69852253    848.076867    0.00000    0.00000    0.00000    9    orth
   11      0.201D-05      0.894D-07      -633.69852253    848.076872    0.00000    0.00000    0.00000    9    diag
   12      0.406D-06      0.146D-07      -633.69852253    848.076870    0.00000    0.00000    0.00000    0    orth

 Final occupancy:   7   2   4   1   4   1   2   0

 !RHF STATE 1.1 Energy               -633.698522528729
 Nuclear energy                       176.59926208
 One-electron energy                -1234.33621963
 Two-electron energy                  424.03843503
 Virial quotient                       -1.00027202
 !RHF STATE 1.1 Dipole moment           0.00000000     0.00000000     0.00000000
 Dipole moment /Debye                   0.00000000     0.00000000     0.00000000

 Orbital energies:

         1.1          2.1          3.1          4.1          5.1          6.1          7.1          8.1          9.1
    -58.498128   -20.534510    -4.910066    -3.224625    -1.279571    -0.596628    -0.263263     0.037399     0.059200

         1.2          2.2          3.2          4.2
     -3.223267    -0.515405     0.024450     0.094653

         1.3          2.3          3.3          4.3          5.3          6.3
    -20.534535    -3.221252    -1.237387    -0.475439     0.034813     0.110469

         1.4          2.4          3.4
     -0.461087     0.200560     0.474750

         1.5          2.5          3.5          4.5          5.5          6.5
    -58.498128    -4.909811    -3.222686    -0.566598    -0.070185     0.029254

         1.6          2.6          3.6
     -3.223066     0.036217     0.089774

         1.7          2.7          3.7          4.7
     -3.220949    -0.513276     0.046494     0.156872

         1.8          2.8
      0.367729     1.041245

 HOMO      7.1    -0.263263 =      -7.1637eV
 LUMO      5.5    -0.070185 =      -1.9098eV
 LUMO-HOMO         0.193077 =       5.2539eV


 **********************************************************************************************************************************
 DATASETS  * FILE   NREC   LENGTH (MB)   RECORD NAMES
              1      19       57.67       500      610      700      900      950      970     1000      129      960     1100   
                                          VAR    BASINP    GEOM    SYMINP    ZMAT    AOBASIS   BASIS     P2S    ABASIS      S 
                                         1400     1410     1200     1210     1080     1600     1650     1300     1700   
                                           T        V       H0       H01     AOSYM     SMH    MOLCAS    ERIS     OPER   

              2       4        0.42       700     1000      520     2100   
                                         GEOM     BASIS   MCVARS     RHF  

 PROGRAMS   *        TOTAL        HF       INT
 CPU TIMES  *         3.90      0.36      3.40
 REAL TIME  *         9.32 SEC
 DISK USED  *       178.03 MB      
 **********************************************************************************************************************************


1PROGRAM * CCSD (Closed-shell coupled cluster)     Authors: C. Hampel, H.-J. Werner, 1991, M. Deegan, P.J. Knowles, 1992

                                  CCSD-F12 implementation by  H.-J. Werner, 2007

                   Density fitting integral evaluation by F.R. Manby, 2003,2007, G. Knizia, 2010

 Basis set AUG-CC-PVDZ/JKFIT generated.  Number of basis functions:   428 
 Basis set CC-PVDZ-F12/OPTRI generated.  Number of basis functions:   264 
 Basis set AUG-CC-PVDZ/MP2FIT generated. Number of basis functions:   328 

 Convergence thresholds:  THRVAR = 1.00D-10  THRDEN = 1.00D-08

 CCSD(T)     terms to be evaluated (factor= 1.000)


 Number of core orbitals:          12 (   4   1   2   0   3   1   1   0 )
 Number of closed-shell orbitals:   9 (   3   1   2   1   1   0   1   0 )
 Number of external orbitals:     117 (  25  14  19   9  21  10  14   5 )

 Molecular orbitals read from record     2100.2  Type=RHF/CANONICAL (state 1.1)

 MP2-F12 correlation treatment (H.-J. Werner, 2006)
 ==================================================

 Using MP2-F12 with ansatz 3C(FIX)

 Using projected zeroth-order Hamiltonian (+Z)

 FOCKRIB=T FOCKRIC=T FOCKRIP=T CABSP=T CABSA=T CABSK=T CABSF=T GBC=F EBC=F DMAT=T NOFIK=T NOPAO=1 SOLVE=-1  USEPAO=0
 EXCH_A= T EXCH_B= F EXCH_C= F EXCH_P= F
 
 Geminal basis:    OPTFULL  GEM_TYPE=SLATER  BETA=1.0  NGEM=6

 Optimizing Gaussian exponents for each gem_beta

 Geminal optimization for beta= 1.0000
 Weight function:   m=0, omega= 1.4646

 Augmented Hessian optimization of geminal fit. Trust ratio= 0.40000
 Convergence reached after   2 iterations. Final gradient= 8.50D-16, Step= 4.18D-06, Delta= 1.28D-09
 
 Alpha:                 0.19532     0.81920     2.85917     9.50073    35.69989   197.79328
 Coeff:                 0.27070     0.30552     0.18297     0.10986     0.06810     0.04224
 

 Symmetry turned off. Reference energy:       -633.698522528730

 All pairs explicitly correlated. Number of r12-pairs:           45

 Excluding core orbitals from MO domains
 
 AO(A)-basis ORBITAL           loaded. Number of functions:     138
 RI(R)-basis CC-PVDZ-F12/OPTRI loaded. Number of functions:     264
 DF-basis AUG-CC-PVDZ/JKFIT    loaded. Number of functions:     428

 Screening thresholds:   THRAO=  1.00D-10  THRMO=  1.00D-10  THRPROD=  1.00D-10
                         THRSW=  1.00D-07  THROV=  1.00D-12  THRF12=   1.00D-08

 CPU time for Fock operators                      5.54 sec
 
 Construction of ABS:
 Smallest eigenvalue of S          2.06E-03  (threshold= 1.00E-08)
 Ratio eigmin/eigmax               1.44E-05  (threshold= 1.00E-09)
 Smallest eigenvalue of S kept     2.06E-03  (threshold= 2.06E-03, 0 functions deleted, 264 kept)
 
 Construction of CABS:
 Smallest eigenvalue of S          2.44E-05  (threshold= 1.00E-08)
 Ratio eigmin/eigmax               2.44E-05  (threshold= 1.00E-09)
 Smallest eigenvalue of S kept     2.44E-05  (threshold= 2.44E-05, 0 functions deleted, 264 kept)
 
 CPU time for CABS singles                        0.17 sec

 CABS-singles contribution of  -0.01100807 patched into reference energy.
 New reference energy        -633.70953060
 
 AO(A)-basis ORBITAL           loaded. Number of functions:     138
 RI(R)-basis CC-PVDZ-F12/OPTRI loaded. Number of functions:     264
 DF-basis AUG-CC-PVDZ/MP2FIT   loaded. Number of functions:     328

 Screening thresholds:   THRAO=  1.00D-10  THRMO=  1.00D-10  THRPROD=  1.00D-10
                         THRSW=  1.00D-07  THROV=  1.00D-12  THRF12=   1.00D-08

 CPU time for 3-index integral evaluation         4.83 sec
 CPU time for first  half transformation          0.49 sec ( 3362.1 MFLOP/sec)
 CPU time for second half transformation          0.04 sec ( 2994.2 MFLOP/sec)
 CPU time for sorting                             0.03 sec
 CPU time for fitting                             0.13 sec ( 6926.8 MFLOP/sec)
 CPU time for tilde quantities                    0.16 sec ( 7044.1 MFLOP/sec)
 CPU time for assembly                            1.30 sec ( 8644.5 MFLOP/sec)
 CPU time for tranop_f12                          1.76 sec ( 8392.0 MFLOP/sec)
 CPU time for f12 integrals (total)              11.47 sec, Elapsed time:     24.93 sec
 CPU time for f12 matrices (total)                0.60 sec, Elapsed time:      1.41 sec

 Diagonal F12 approximation with fixed coefficients:  TSING= 0.500,  TTRIP= 0.250 (scaled by -1/beta)

 DF-MP2-F12 energy corrections:
 ==============================
 Approx.                                    Singlet             Triplet             Total
 DF-MP2-F12/3*C(DX,FIX)                -0.107801775719     -0.022046512987     -0.129848288706
 DF-MP2-F12/3*C(FIX)                   -0.101337119057     -0.022808532690     -0.124145651747
 DF-MP2-F12/3C(FIX)                    -0.102355860764     -0.023947524122     -0.126303384886

 DF-MP2-F12 correlation energies:
 ================================
 Approx.                                    Singlet             Triplet             Ecorr            Total Energy
 DF-MP2                                -0.357867479743     -0.245430734096     -0.603298213840   -634.312828811882
 DF-MP2-F12/3*C(DX,FIX)                -0.465669255463     -0.267477247083     -0.733146502545   -634.442677100587
 DF-MP2-F12/3*C(FIX)                   -0.459204598801     -0.268239266786     -0.727443865587   -634.436974463629
 DF-MP2-F12/3C(FIX)                    -0.460223340508     -0.269378258218     -0.729601598726   -634.439132196768

 SCS-DF-MP2 energies (F_SING= 1.20000  F_TRIP= 0.62222  F_PARALLEL= 0.33333):
 ============================================================================
 SCS-DF-MP2                            -0.582153432463   -634.291684030505
 SCS-DF-MP2-F12/3*C(DX,FIX)            -0.725233393629   -634.434763991671
 SCS-DF-MP2-F12/3*C(FIX)               -0.717949951228   -634.427480549270
 SCS-DF-MP2-F12/3C(FIX)                -0.719881147056   -634.429411745098

 Symmetry restored.
 Symmetry transformation completed.

 Number of N-1 electron functions:               9
 Number of N-2 electron functions:              45
 Number of singly external CSFs:               171
 Number of doubly external CSFs:             72939
 Total number of CSFs:                       73111

 Length of J-op  integral file:             114.86 MB
 Length of K-op  integral file:             129.24 MB
 Length of 3-ext integral record:             0.00 MB

 Memory could be reduced to 2.91 Mwords without degradation in triples

 Integral transformation finished. Total CPU:   0.18 sec, npass=  1  Memory used:   1.05 MW

 Reference energy:                   -633.70953060

 Adding F12 terms to K(Cij), methodcc=6,  factor= 1.0

 ITER.      SQ.NORM     CORR.ENERGY   TOTAL ENERGY   ENERGY CHANGE        DEN1      VAR(S)    VAR(P)  DIIS     TIME
   1      1.24299520    -0.57686673  -634.28639733     0.02629175     0.04985821  0.63D-02  0.85D-02  1  1    18.60
   2      1.27344376    -0.57666960  -634.28620020     0.00019713    -0.01651355  0.59D-03  0.16D-02  2  2    18.90
   3      1.29925909    -0.57780562  -634.28733622    -0.00113602    -0.00423958  0.22D-03  0.46D-03  3  3    19.18
   4      1.32046357    -0.57829674  -634.28782734    -0.00049112    -0.00284015  0.68D-04  0.11D-03  4  4    19.46
   5      1.33387223    -0.57832956  -634.28786016    -0.00003282    -0.00100311  0.17D-04  0.23D-04  5  5    19.76
   6      1.34229206    -0.57833805  -634.28786865    -0.00000850    -0.00036101  0.26D-05  0.23D-05  6  6    20.08
   7      1.34465287    -0.57834955  -634.28788014    -0.00001149    -0.00009287  0.34D-06  0.21D-06  6  1    20.37
   8      1.34499824    -0.57835417  -634.28788477    -0.00000463    -0.00000416  0.40D-07  0.34D-07  6  2    20.67
   9      1.34509320    -0.57835609  -634.28788668    -0.00000191    -0.00000550  0.99D-08  0.47D-08  6  3    20.97
  10      1.34512612    -0.57835636  -634.28788696    -0.00000027     0.00000054  0.85D-09  0.73D-09  6  4    21.27
  11      1.34511974    -0.57835686  -634.28788746    -0.00000050     0.00000114  0.25D-09  0.10D-09  6  5    21.56
  12      1.34512206    -0.57835691  -634.28788750    -0.00000004     0.00000075  0.39D-10  0.24D-10  6  6    21.86
  13      1.34511576    -0.57835698  -634.28788757    -0.00000007     0.00000042  0.49D-11  0.53D-11  6  2    22.16
  14      1.34511345    -0.57835700  -634.28788759    -0.00000002     0.00000022  0.45D-12  0.78D-12  6  1    22.46
  15      1.34511239    -0.57835701  -634.28788760    -0.00000001     0.00000007  0.87D-13  0.15D-12  6  3    22.77
  16      1.34511187    -0.57835701  -634.28788761    -0.00000001     0.00000004  0.86D-14  0.21D-13  6  4    23.07

 Norm of t1 vector:      0.13810083      S-energy:     0.00000001      T1 diagnostic:  0.02301681
                                                                       D1 diagnostic:  0.06692700

 Doubles amplitudes (print threshold =  0.500E-01):

         I         J         SYM. A    SYM. B    A         B      T(IJ, AB)

         3         3         5         5         1         1     -0.36333399
         3         3         5         5         1         2      0.05169580
         3         3         5         5         1         3      0.06203968
         3         3         5         5         2         1      0.05169580
         3         3         5         5         3         1      0.06203968

 Adding energy correction from Wij-K(Fij), methodcc=6  factor= 1.0
 
  CCSD correlation energy              -0.578357012013
  MP2-F12 correction (uncoupled)       -0.120766791480
  C*T doubles correction               -0.002995225399
  f12b correction                       0.015566679250


 Total CPU time for triples:      3.34 sec


 RESULTS
 =======

  Reference energy                   -633.698522528730
  F12 singles correction               -0.011008069312

 F12 singles corrections added to reference energy

  New reference energy               -633.709530598042

  F12a singlet correction              -0.100727935727
  F12a triplet correction              -0.023034081152
  F12a total correction                -0.123762016879

 F12a corrections for ansatz F12/3C(FIX) added to CCSD energy
 
  CCSD-F12a singlet pair energy        -0.477582231054
  CCSD-F12a triplet pair energy        -0.224536804377
  CCSD-F12a correlation energy         -0.702119028892

  Triples (T) contribution             -0.035258756171
  Total correlation energy             -0.737377785063

  CCSD-F12a total energy             -634.411649626934
  CCSD[T]-F12a energy                -634.448633323510
  CCSD-T-F12a energy                 -634.446431716488
 !CCSD(T)-F12a total energy          -634.446908383105

 F12b corrections for ansatz F12/3C(FIX) added to CCSD(T)-F12a energy

  CCSD-F12b singlet pair energy        -0.463604633631
  CCSD-F12b triplet pair energy        -0.222947722551
  CCSD-F12b correlation energy         -0.686552349642

  Triples (T) contribution             -0.035258756171
  Total correlation energy             -0.721811105813

  CCSD-F12b total energy             -634.396082947684
  CCSD[T]-F12b energy                -634.433066644261
  CCSD-T-F12b energy                 -634.430865037238
 !CCSD(T)-F12b total energy          -634.431341703855

 Timing summary (sec):

 STEP                 CPU(USER)    SYS     CPU(TOT)    WALL
 Transformation          0.18      0.07      0.25      0.52
 CCSD iterations         4.88      0.64      5.52     11.31
 Triples                 3.34      0.19      3.53      7.08
 MP2-F12                18.02      1.33     19.35     39.10
 F12b energy             0.18      0.02      0.20      0.41

 Program statistics:

 Available memory in ccsd:               994999351
 Min. memory needed in ccsd:                231421
 Max. memory used in ccsd:                  290599
 Max. memory used in cckext:                321696 (17 integral passes)



 **********************************************************************************************************************************
 DATASETS  * FILE   NREC   LENGTH (MB)   RECORD NAMES
              1      20       66.85       500      610      700      900      950      970     1000      129      960     1100   
                                          VAR    BASINP    GEOM    SYMINP    ZMAT    AOBASIS   BASIS     P2S    ABASIS      S 
                                         1400     1410     1200     1210     1080     1600     1650     1300     1700     1380   
                                           T        V       H0       H01     AOSYM     SMH    MOLCAS    ERIS     OPER     JKOP   

              2       6        0.48       700     1000      520     2100     7360     7350   
                                         GEOM     BASIS   MCVARS     RHF    F12ABS    EF12   

 PROGRAMS   *        TOTAL   CCSD(T)        HF       INT
 CPU TIMES  *        30.54     26.64      0.36      3.40
 REAL TIME  *        67.94 SEC
 DISK USED  *       410.86 MB      
 **********************************************************************************************************************************


 PROGRAM * OPT (Geometry optimization)     Authors: F. Eckert and H.-J. Werner


 BFGS update of hessian

 *** Long output written to logfile /ddn/home1/r2518/Programs/pbqff/new_way_al2o2/sequoia/opt/opt.log ***


 Geometry optimization using default procedure for command CCSD(T)-F12

 Geometry written to block  1 of record 700

 Making model hessian for Z-matrix coordinates

 Quadratic Steepest Descent - Minimum Search

 ITER.   ENERGY(OLD)    ENERGY(NEW)      DE          GRADMAX     GRADNORM    GRADRMS     STEPMAX     STEPLEN     STEPRMS   CPU-time
   1  -634.43134170  -634.43134170     0.00000000  0.00000005  0.00000005  0.00000003  0.00000003  0.00000004  0.00000002    150.63
